<event>
 9    1  0.2098759E-002  0.2747620E+03  0.7818608E-02  0.1098585E+00
          3   -1    0    0  501    0  0.00000000000E+00  0.00000000000E+00  0.16809449670E+02  0.16809449670E+02  0.00000000000E+00 0. -1.
         -3   -1    0    0    0  501 -0.00000000000E+00 -0.00000000000E+00 -0.11227937010E+04  0.11227937010E+04  0.00000000000E+00 0. -1.
         36    2    1    2    0    0  0.71054273576E-14 -0.35527136788E-14 -0.11059842513E+04  0.11396031507E+04  0.27476203673E+03 0.  0.
         25    2    3    3    0    0  0.10070559165E+01  0.11537447736E+01 -0.32600448310E+03  0.34968963999E+03  0.12649733606E+03 0.  0.
         25    2    3    3    0    0 -0.10070559165E+01 -0.11537447736E+01 -0.77997976824E+03  0.78991351068E+03  0.12487021345E+03 0.  0.
          5    1    4    4  502    0  0.24686537495E+02  0.55954597670E+02 -0.11479298516E+03  0.13015322345E+03  0.47000000000E+01 0. -1.
         -5    1    4    4    0  502 -0.23679481578E+02 -0.54800852896E+02 -0.21121149794E+03  0.21953641654E+03  0.47000000000E+01 0. -1.
          5    1    5    5  503    0 -0.32680493781E+02  0.74777886365E+01 -0.72440808290E+03  0.72519865731E+03  0.47000000000E+01 0. -1.
         -5    1    5    5    0  503  0.31673437865E+02 -0.86315334101E+01 -0.55571685340E+02  0.64714853371E+02  0.47000000000E+01 0. -1.
<mgrwt>
<rscale>  0 0.27476204E+03</rscale>
<asrwt>0</asrwt>
<pdfrwt beam="1">  1        3 0.25860690E-02 0.27476204E+03</pdfrwt>
<pdfrwt beam="2">  1       -3 0.17273751E+00 0.27476204E+03</pdfrwt>
<totfact> 0.38608931E+02</totfact>
</mgrwt>
</event>
<event>
 9    1  0.2098759E-002  0.2748342E+03  0.7818608E-02  0.1098544E+00
         -1   -1    0    0    0  501 -0.00000000000E+00  0.00000000000E+00  0.60314593860E+02  0.60314593860E+02  0.00000000000E+00 0. -1.
          1   -1    0    0  501    0  0.00000000000E+00 -0.00000000000E+00 -0.31308283367E+03  0.31308283367E+03  0.00000000000E+00 0. -1.
         36    2    1    2    0    0  0.71054273576E-14  0.00000000000E+00 -0.25276823981E+03  0.37339742753E+03  0.27483423336E+03 0.  0.
         25    2    3    3    0    0  0.59072827626E+02  0.75859562702E+02 -0.10854661359E+03  0.16531724289E+03  0.79392387914E+02 0.  0.
         25    2    3    3    0    0 -0.59072827626E+02 -0.75859562702E+02 -0.14422162622E+03  0.20808018464E+03  0.11512260226E+03 0.  0.
          5    1    4    4  502    0  0.51229918731E+02  0.50061911907E+01 -0.58654248808E+02  0.78179136773E+02  0.47000000000E+01 0.  1.
         -5    1    4    4    0  502  0.78429088950E+01  0.70853371512E+02 -0.49892364782E+02  0.87138106119E+02  0.47000000000E+01 0.  1.
          5    1    5    5  503    0  0.30051256837E+02 -0.41182980840E+02 -0.71047035846E+02  0.87572183088E+02  0.47000000000E+01 0.  1.
         -5    1    5    5    0  503 -0.89124084462E+02 -0.34676581863E+02 -0.73174590371E+02  0.12050800155E+03  0.47000000000E+01 0.  1.
<mgrwt>
<rscale>  0 0.27483423E+03</rscale>
<asrwt>0</asrwt>
<pdfrwt beam="1">  1        1 0.48166590E-01 0.27483423E+03</pdfrwt>
<pdfrwt beam="2">  1       -1 0.92791682E-02 0.27483423E+03</pdfrwt>
<totfact> 0.56448788E+03</totfact>
</mgrwt>
</event>
<event>
 9    1  0.2098759E-002  0.2748384E+03  0.7818608E-02  0.1098542E+00
         -2   -1    0    0    0  501 -0.00000000000E+00  0.00000000000E+00  0.47579994124E+02  0.47579994124E+02  0.00000000000E+00 0. -1.
          2   -1    0    0  501    0  0.00000000000E+00 -0.00000000000E+00 -0.39689030829E+03  0.39689030829E+03  0.00000000000E+00 0. -1.
         36    2    1    2    0    0  0.88817841970E-15  0.00000000000E+00 -0.34931031417E+03  0.44447030241E+03  0.27483841461E+03 0.  0.
         25    2    3    3    0    0 -0.11943647248E+00  0.39198000788E+02 -0.23972222893E+03  0.27476339267E+03  0.12841992594E+03 0.  0.
         25    2    3    3    0    0  0.11943647248E+00 -0.39198000788E+02 -0.10958808524E+03  0.16970690974E+03  0.12350866066E+03 0.  0.
          5    1    4    4  502    0  0.25050404068E+02  0.90826884545E+01 -0.23312220412E+03  0.23468717482E+03  0.47000000000E+01 0. -1.
         -5    1    4    4    0  502 -0.25169840541E+02  0.30115312333E+02 -0.66000248134E+01  0.40076217852E+02  0.47000000000E+01 0. -1.
          5    1    5    5  503    0 -0.52891877749E+01  0.29303223476E+02  0.99511228720E+01  0.31745381708E+02  0.47000000000E+01 0. -1.
         -5    1    5    5    0  503  0.54086242474E+01 -0.68501224263E+02 -0.11953920811E+03  0.13796152803E+03  0.47000000000E+01 0. -1.
<mgrwt>
<rscale>  0 0.27483841E+03</rscale>
<asrwt>0</asrwt>
<pdfrwt beam="1">  1        2 0.61060048E-01 0.27483841E+03</pdfrwt>
<pdfrwt beam="2">  1       -2 0.73199990E-02 0.27483841E+03</pdfrwt>
<totfact> 0.86921827E+03</totfact>
</mgrwt>
</event>
<event>
 9    1  0.2098759E-002  0.2760260E+03  0.7818608E-02  0.1097879E+00
          2   -1    0    0  501    0  0.00000000000E+00  0.00000000000E+00  0.90757086197E+03  0.90757086197E+03  0.00000000000E+00 0. -1.
         -2   -1    0    0    0  501 -0.00000000000E+00 -0.00000000000E+00 -0.20987434625E+02  0.20987434625E+02  0.00000000000E+00 0. -1.
         36    2    1    2    0    0  0.71054273576E-14  0.00000000000E+00  0.88658342734E+03  0.92855829659E+03  0.27602597076E+03 0.  0.
         25    2    3    3    0    0 -0.33677105224E+02 -0.13378783445E+02  0.25101605488E+03  0.28197322902E+03  0.12323434104E+03 0.  0.
         25    2    3    3    0    0  0.33677105224E+02  0.13378783445E+02  0.63556737246E+03  0.64658506758E+03  0.11319551851E+03 0.  0.
          5    1    4    4  502    0  0.34506725605E+02  0.31053425365E+02  0.82675952857E+02  0.94933832324E+02  0.47000000000E+01 0.  1.
         -5    1    4    4    0  502 -0.68183830829E+02 -0.44432208810E+02  0.16834010202E+03  0.18703939669E+03  0.47000000000E+01 0.  1.
          5    1    5    5  503    0  0.36523898626E+02  0.55768766324E+02  0.25451656892E+03  0.26314430323E+03  0.47000000000E+01 0. -1.
         -5    1    5    5    0  503 -0.28467934021E+01 -0.42389982879E+02  0.38105080355E+03  0.38344076435E+03  0.47000000000E+01 0. -1.
<mgrwt>
<rscale>  0 0.27602597E+03</rscale>
<asrwt>0</asrwt>
<pdfrwt beam="1">  1        2 0.13962626E+00 0.27602597E+03</pdfrwt>
<pdfrwt beam="2">  1       -2 0.32288368E-02 0.27602597E+03</pdfrwt>
<totfact> 0.11365839E+04</totfact>
</mgrwt>
</event>
<event>
 9    1  0.2098759E-002  0.2745962E+03  0.7818608E-02  0.1098678E+00
          2   -1    0    0  501    0  0.00000000000E+00  0.00000000000E+00  0.71890468574E+03  0.71890468574E+03  0.00000000000E+00 0. -1.
         -2   -1    0    0    0  501 -0.00000000000E+00 -0.00000000000E+00 -0.26221515523E+02  0.26221515523E+02  0.00000000000E+00 0. -1.
         36    2    1    2    0    0  0.17763568394E-14 -0.35527136788E-14  0.69268317022E+03  0.74512620127E+03  0.27459621539E+03 0.  0.
         25    2    3    3    0    0 -0.30069337047E+01  0.27061732074E+02  0.22027483069E+03  0.25582976517E+03  0.12722613222E+03 0.  0.
         25    2    3    3    0    0  0.30069337047E+01 -0.27061732074E+02  0.47240833953E+03  0.48929643610E+03  0.12449893222E+03 0.  0.
          5    1    4    4  502    0 -0.11984417568E+02 -0.33576361512E+02  0.17707815188E+03  0.18069244641E+03  0.47000000000E+01 0. -1.
         -5    1    4    4    0  502  0.89774838637E+01  0.60638093586E+02  0.43196678807E+02  0.75137318758E+02  0.47000000000E+01 0. -1.
          5    1    5    5  503    0  0.17254325480E+02  0.28773389782E+02  0.37398731220E+02  0.50461617138E+02  0.47000000000E+01 0.  1.
         -5    1    5    5    0  503 -0.14247391776E+02 -0.55835121856E+02  0.43500960831E+03  0.43883481896E+03  0.47000000000E+01 0.  1.
<mgrwt>
<rscale>  0 0.27459622E+03</rscale>
<asrwt>0</asrwt>
<pdfrwt beam="1">  1        2 0.11060071E+00 0.27459622E+03</pdfrwt>
<pdfrwt beam="2">  1       -2 0.40340799E-02 0.27459622E+03</pdfrwt>
<totfact> 0.10969476E+04</totfact>
</mgrwt>
</event>
<event>
 9    1  0.2098759E-002  0.2754112E+03  0.7818608E-02  0.1098222E+00
         -1   -1    0    0    0  501 -0.00000000000E+00  0.00000000000E+00  0.50661596988E+01  0.50661596988E+01  0.00000000000E+00 0.  1.
          1   -1    0    0  501    0  0.00000000000E+00 -0.00000000000E+00 -0.37430376508E+04  0.37430376508E+04  0.00000000000E+00 0.  1.
         36    2    1    2    0    0  0.00000000000E+00  0.35527136788E-14 -0.37379714911E+04  0.37481038105E+04  0.27541115807E+03 0.  0.
         25    2    3    3    0    0 -0.48370370352E+01 -0.12700223843E+02 -0.11934951100E+04  0.12005697871E+04  0.12943161735E+03 0.  0.
         25    2    3    3    0    0  0.48370370352E+01  0.12700223843E+02 -0.25444763811E+04  0.25475340234E+04  0.12403569491E+03 0.  0.
          5    1    4    4  502    0 -0.15695726483E+02 -0.23859515105E+02 -0.11771690125E+04  0.11775247795E+04  0.47000000000E+01 0. -1.
         -5    1    4    4    0  502  0.10858689447E+02  0.11159291263E+02 -0.16326097478E+02  0.23045007634E+02  0.47000000000E+01 0. -1.
          5    1    5    5  503    0  0.13355357524E+02  0.64825588100E+02 -0.17707572175E+04  0.17719999819E+04  0.47000000000E+01 0. -1.
         -5    1    5    5    0  503 -0.85183204890E+01 -0.52125364257E+02 -0.77371916360E+03  0.77553404149E+03  0.47000000000E+01 0. -1.
<mgrwt>
<rscale>  0 0.27541116E+03</rscale>
<asrwt>0</asrwt>
<pdfrwt beam="1">  1        1 0.57585367E+00 0.27541116E+03</pdfrwt>
<pdfrwt beam="2">  1       -1 0.77940686E-03 0.27541116E+03</pdfrwt>
<totfact> 0.54853035E+02</totfact>
</mgrwt>
</event>
<event>
 9    1  0.2098759E-002  0.2759647E+03  0.7818608E-02  0.1097914E+00
         -1   -1    0    0    0  501 -0.00000000000E+00  0.00000000000E+00  0.29031612044E+02  0.29031612044E+02  0.00000000000E+00 0. -1.
          1   -1    0    0  501    0  0.00000000000E+00 -0.00000000000E+00 -0.65580682477E+03  0.65580682477E+03  0.00000000000E+00 0. -1.
         36    2    1    2    0    0  0.00000000000E+00  0.00000000000E+00 -0.62677521273E+03  0.68483843682E+03  0.27596470291E+03 0.  0.
         25    2    3    3    0    0 -0.47485368812E+02  0.11403887433E+02 -0.38958195969E+03  0.41246748085E+03  0.12637408967E+03 0.  0.
         25    2    3    3    0    0  0.47485368812E+02 -0.11403887433E+02 -0.23719325304E+03  0.27237095597E+03  0.12466109846E+03 0.  0.
          5    1    4    4  502    0  0.15289996244E+02  0.56057529865E+02 -0.16564232860E+03  0.17560097284E+03  0.47000000000E+01 0.  1.
         -5    1    4    4    0  502 -0.62775365056E+02 -0.44653642432E+02 -0.22393963109E+03  0.23686650800E+03  0.47000000000E+01 0.  1.
          5    1    5    5  503    0  0.24247646198E+02 -0.65286296644E+02 -0.90389887880E+02  0.11420451264E+03  0.47000000000E+01 0.  1.
         -5    1    5    5    0  503  0.23237722614E+02  0.53882409211E+02 -0.14680336516E+03  0.15816644333E+03  0.47000000000E+01 0.  1.
<mgrwt>
<rscale>  0 0.27596470E+03</rscale>
<asrwt>0</asrwt>
<pdfrwt beam="1">  1        1 0.10089336E+00 0.27596470E+03</pdfrwt>
<pdfrwt beam="2">  1       -1 0.44664016E-02 0.27596470E+03</pdfrwt>
<totfact> 0.64440495E+03</totfact>
</mgrwt>
</event>
<event>
 9    1  0.2098759E-002  0.2751294E+03  0.7818608E-02  0.1098379E+00
         -2   -1    0    0    0  501 -0.00000000000E+00  0.00000000000E+00  0.23217835828E+02  0.23217835828E+02  0.00000000000E+00 0.  1.
          2   -1    0    0  501    0  0.00000000000E+00 -0.00000000000E+00 -0.81506501469E+03  0.81506501469E+03  0.00000000000E+00 0.  1.
         36    2    1    2    0    0  0.00000000000E+00  0.00000000000E+00 -0.79184717886E+03  0.83828285052E+03  0.27512939283E+03 0.  0.
         25    2    3    3    0    0 -0.53798687682E+01  0.17736558538E+02 -0.50151597803E+03  0.52122923294E+03  0.14077680405E+03 0.  0.
         25    2    3    3    0    0  0.53798687682E+01 -0.17736558538E+02 -0.29033120083E+03  0.31705361757E+03  0.12604468153E+03 0.  0.
          5    1    4    4  502    0 -0.39308118316E+02  0.45751296421E+02 -0.97146138456E+02  0.11444549579E+03  0.47000000000E+01 0.  1.
         -5    1    4    4    0  502  0.33928249548E+02 -0.28014737883E+02 -0.40436983957E+03  0.40678373715E+03  0.47000000000E+01 0.  1.
          5    1    5    5  503    0  0.15197020863E+02 -0.13950940996E+02 -0.30076491206E+03  0.30150820972E+03  0.47000000000E+01 0.  1.
         -5    1    5    5    0  503 -0.98171520950E+01 -0.37856175425E+01  0.10433711230E+02  0.15545407858E+02  0.47000000000E+01 0.  1.
<mgrwt>
<rscale>  0 0.27512939E+03</rscale>
<asrwt>0</asrwt>
<pdfrwt beam="1">  1        2 0.12539462E+00 0.27512939E+03</pdfrwt>
<pdfrwt beam="2">  1       -2 0.35719747E-02 0.27512939E+03</pdfrwt>
<totfact> 0.11252716E+04</totfact>
</mgrwt>
</event>
<event>
 9    1  0.2098759E-002  0.2679430E+03  0.7818608E-02  0.1102463E+00
          2   -1    0    0  501    0  0.00000000000E+00  0.00000000000E+00  0.56958600205E+03  0.56958600205E+03  0.00000000000E+00 0.  1.
         -2   -1    0    0    0  501 -0.00000000000E+00 -0.00000000000E+00 -0.31511241418E+02  0.31511241418E+02  0.00000000000E+00 0.  1.
         36    2    1    2    0    0  0.00000000000E+00 -0.71054273576E-14  0.53807476063E+03  0.60109724347E+03  0.26794299408E+03 0.  0.
         25    2    3    3    0    0 -0.53672846677E+01  0.54803370995E+02  0.26685010645E+03  0.30086487156E+03  0.12758712478E+03 0.  0.
         25    2    3    3    0    0  0.53672846677E+01 -0.54803370995E+02  0.27122465418E+03  0.30023237191E+03  0.11638061217E+03 0.  0.
          5    1    4    4  502    0  0.24696849859E+02  0.58960007602E+02  0.26205637862E+03  0.26978111955E+03  0.47000000000E+01 0.  1.
         -5    1    4    4    0  502 -0.30064134527E+02 -0.41566366065E+01  0.47937278326E+01  0.31083752014E+02  0.47000000000E+01 0.  1.
          5    1    5    5  503    0  0.13826005778E+02 -0.34038899084E+02  0.10493665103E+02  0.38496910187E+02  0.47000000000E+01 0. -1.
         -5    1    5    5    0  503 -0.84587211105E+01 -0.20764471911E+02  0.26073098908E+03  0.26173546172E+03  0.47000000000E+01 0. -1.
<mgrwt>
<rscale>  0 0.26794299E+03</rscale>
<asrwt>0</asrwt>
<pdfrwt beam="1">  1        2 0.87628608E-01 0.26794299E+03</pdfrwt>
<pdfrwt beam="2">  1       -2 0.48478837E-02 0.26794299E+03</pdfrwt>
<totfact> 0.10933787E+04</totfact>
</mgrwt>
</event>
<event>
 9    1  0.2098759E-002  0.2760163E+03  0.7818608E-02  0.1097885E+00
          2   -1    0    0  501    0  0.00000000000E+00  0.00000000000E+00  0.49582011481E+02  0.49582011481E+02  0.00000000000E+00 0.  1.
         -2   -1    0    0    0  501 -0.00000000000E+00 -0.00000000000E+00 -0.38413628592E+03  0.38413628592E+03  0.00000000000E+00 0.  1.
         36    2    1    2    0    0 -0.35527136788E-14 -0.71054273576E-14 -0.33455427444E+03  0.43371829740E+03  0.27601630197E+03 0.  0.
         25    2    3    3    0    0  0.91740695840E+01 -0.36292673656E+02 -0.10663481805E+03  0.16946496229E+03  0.12627773877E+03 0.  0.
         25    2    3    3    0    0 -0.91740695840E+01  0.36292673656E+02 -0.22791945639E+03  0.26425333511E+03  0.12837922263E+03 0.  0.
          5    1    4    4  502    0  0.19999549794E+02 -0.81976514545E+02 -0.69619837892E+02  0.10949494398E+03  0.47000000000E+01 0.  1.
         -5    1    4    4    0  502 -0.10825480210E+02  0.45683840889E+02 -0.37014980158E+02  0.59970018312E+02  0.47000000000E+01 0.  1.
          5    1    5    5  503    0 -0.39902624858E+02  0.54654089800E+02 -0.54215940632E+02  0.86837475902E+02  0.47000000000E+01 0.  1.
         -5    1    5    5    0  503  0.30728555274E+02 -0.18361416144E+02 -0.17370351576E+03  0.17741585921E+03  0.47000000000E+01 0.  1.
<mgrwt>
<rscale>  0 0.27601630E+03</rscale>
<asrwt>0</asrwt>
<pdfrwt beam="1">  1        2 0.76280016E-02 0.27601630E+03</pdfrwt>
<pdfrwt beam="2">  1       -2 0.59097891E-01 0.27601630E+03</pdfrwt>
<totfact> 0.24604762E+03</totfact>
</mgrwt>
</event>
<event>
 9    1  0.2098759E-002  0.2748235E+03  0.7818608E-02  0.1098550E+00
         -1   -1    0    0    0  501 -0.00000000000E+00  0.00000000000E+00  0.99354981691E+02  0.99354981691E+02  0.00000000000E+00 0. -1.
          1   -1    0    0  501    0  0.00000000000E+00 -0.00000000000E+00 -0.19004568023E+03  0.19004568023E+03  0.00000000000E+00 0. -1.
         36    2    1    2    0    0 -0.71054273576E-14  0.00000000000E+00 -0.90690698542E+02  0.28940066192E+03  0.27482347120E+03 0.  0.
         25    2    3    3    0    0 -0.28394958437E+02 -0.12452517902E+01 -0.81820479521E+02  0.15538535798E+03  0.12900462895E+03 0.  0.
         25    2    3    3    0    0  0.28394958437E+02  0.12452517902E+01 -0.88702190209E+01  0.13401530394E+03  0.13066597334E+03 0.  0.
          5    1    4    4  502    0  0.36382067942E+02 -0.38609220561E+02 -0.52912077637E+02  0.75073995098E+02  0.47000000000E+01 0.  1.
         -5    1    4    4    0  502 -0.64777026379E+02  0.37363968771E+02 -0.28908401883E+02  0.80311362884E+02  0.47000000000E+01 0.  1.
          5    1    5    5  503    0 -0.50352380826E+02  0.23627990010E+01  0.12757696643E+02  0.52209136151E+02  0.47000000000E+01 0. -1.
         -5    1    5    5    0  503  0.78747339263E+02 -0.11175472108E+01 -0.21627915664E+02  0.81806167791E+02  0.47000000000E+01 0. -1.
<mgrwt>
<rscale>  0 0.27482347E+03</rscale>
<asrwt>0</asrwt>
<pdfrwt beam="1">  1        1 0.29237797E-01 0.27482347E+03</pdfrwt>
<pdfrwt beam="2">  1       -1 0.15285382E-01 0.27482347E+03</pdfrwt>
<totfact> 0.48479470E+03</totfact>
</mgrwt>
</event>
<event>
 9    1  0.2098759E-002  0.2763146E+03  0.7818608E-02  0.1097719E+00
          2   -1    0    0  501    0  0.00000000000E+00  0.00000000000E+00  0.35583439307E+03  0.35583439307E+03  0.00000000000E+00 0. -1.
         -2   -1    0    0    0  501 -0.00000000000E+00 -0.00000000000E+00 -0.53641340472E+02  0.53641340472E+02  0.00000000000E+00 0. -1.
         36    2    1    2    0    0  0.00000000000E+00 -0.71054273576E-14  0.30219305260E+03  0.40947573354E+03  0.27631455865E+03 0.  0.
         25    2    3    3    0    0 -0.24035370248E+02 -0.16063156878E+02  0.96515510093E+02  0.16146580648E+03  0.12617542923E+03 0.  0.
         25    2    3    3    0    0  0.24035370248E+02  0.16063156878E+02  0.20567754251E+03  0.24800992707E+03  0.13553578273E+03 0.  0.
          5    1    4    4  502    0  0.33940935439E+02  0.26140004407E+02  0.25540230416E+01  0.43172907739E+02  0.47000000000E+01 0. -1.
         -5    1    4    4    0  502 -0.57976305687E+02 -0.42203161285E+02  0.93961487051E+02  0.11829289874E+03  0.47000000000E+01 0. -1.
          5    1    5    5  503    0  0.18604522672E+02  0.22403978956E+02  0.22474404393E+03  0.22667166082E+03  0.47000000000E+01 0. -1.
         -5    1    5    5    0  503  0.54308475761E+01 -0.63408220779E+01 -0.19066501421E+02  0.21338266247E+02  0.47000000000E+01 0. -1.
<mgrwt>
<rscale>  0 0.27631456E+03</rscale>
<asrwt>0</asrwt>
<pdfrwt beam="1">  1        2 0.54743751E-01 0.27631456E+03</pdfrwt>
<pdfrwt beam="2">  1       -2 0.82525142E-02 0.27631456E+03</pdfrwt>
<totfact> 0.81164364E+03</totfact>
</mgrwt>
</event>
<event>
 9    1  0.2098759E-002  0.2749717E+03  0.7818608E-02  0.1098467E+00
          1   -1    0    0  501    0  0.00000000000E+00  0.00000000000E+00  0.27334636831E+03  0.27334636831E+03  0.00000000000E+00 0. -1.
         -1   -1    0    0    0  501 -0.00000000000E+00 -0.00000000000E+00 -0.69151654273E+02  0.69151654273E+02  0.00000000000E+00 0. -1.
         36    2    1    2    0    0 -0.71054273576E-14  0.00000000000E+00  0.20419471404E+03  0.34249802259E+03  0.27497166078E+03 0.  0.
         25    2    3    3    0    0  0.41882806993E+02  0.17813700216E+02  0.13785919535E+03  0.19277583069E+03  0.12683006630E+03 0.  0.
         25    2    3    3    0    0 -0.41882806993E+02 -0.17813700216E+02  0.66335518690E+02  0.14972219190E+03  0.12627286435E+03 0.  0.
          5    1    4    4  502    0  0.18837601763E+01 -0.30115642115E+01 -0.23986427387E+02  0.24699327322E+02  0.47000000000E+01 0. -1.
         -5    1    4    4    0  502  0.39999046817E+02  0.20825264428E+02  0.16184562274E+03  0.16807650336E+03  0.47000000000E+01 0. -1.
          5    1    5    5  503    0  0.40147353991E+02 -0.29134657583E+02  0.35734175586E+02  0.61316063228E+02  0.47000000000E+01 0.  1.
         -5    1    5    5    0  503 -0.82030160984E+02  0.11320957367E+02  0.30601343105E+02  0.88406128671E+02  0.47000000000E+01 0.  1.
<mgrwt>
<rscale>  0 0.27497166E+03</rscale>
<asrwt>0</asrwt>
<pdfrwt beam="1">  1        1 0.42053287E-01 0.27497166E+03</pdfrwt>
<pdfrwt beam="2">  1       -1 0.10638716E-01 0.27497166E+03</pdfrwt>
<totfact> 0.54201409E+03</totfact>
</mgrwt>
</event>
<event>
 9    1  0.2098759E-002  0.2739212E+03  0.7818608E-02  0.1099056E+00
         -2   -1    0    0    0  501 -0.00000000000E+00  0.00000000000E+00  0.21863653588E+02  0.21863653588E+02  0.00000000000E+00 0. -1.
          2   -1    0    0  501    0  0.00000000000E+00 -0.00000000000E+00 -0.85796299437E+03  0.85796299437E+03  0.00000000000E+00 0. -1.
         36    2    1    2    0    0  0.00000000000E+00  0.00000000000E+00 -0.83609934078E+03  0.87982664796E+03  0.27392119816E+03 0.  0.
         25    2    3    3    0    0  0.48072284203E+02 -0.15823465495E+01 -0.47696263186E+03  0.49561988419E+03  0.12582634494E+03 0.  0.
         25    2    3    3    0    0 -0.48072284203E+02  0.15823465495E+01 -0.35913670892E+03  0.38420676377E+03  0.12775841774E+03 0.  0.
          5    1    4    4  502    0 -0.52426179740E+01 -0.49923863235E+02 -0.10195430221E+03  0.11373938150E+03  0.47000000000E+01 0.  1.
         -5    1    4    4    0  502  0.53314902177E+02  0.48341516685E+02 -0.37500832965E+03  0.38188050269E+03  0.47000000000E+01 0.  1.
          5    1    5    5  503    0 -0.57467838309E+02 -0.70459769601E+01 -0.36486097690E+03  0.36945611471E+03  0.47000000000E+01 0.  1.
         -5    1    5    5    0  503  0.93955541058E+01  0.86283235096E+01  0.57242679871E+01  0.14750649055E+02  0.47000000000E+01 0.  1.
<mgrwt>
<rscale>  0 0.27392120E+03</rscale>
<asrwt>0</asrwt>
<pdfrwt beam="1">  1        2 0.13199432E+00 0.27392120E+03</pdfrwt>
<pdfrwt beam="2">  1       -2 0.33636387E-02 0.27392120E+03</pdfrwt>
<totfact> 0.11517488E+04</totfact>
</mgrwt>
</event>
<event>
 9    1  0.2098759E-002  0.2750970E+03  0.7818608E-02  0.1098397E+00
         -2   -1    0    0    0  501 -0.00000000000E+00  0.00000000000E+00  0.11137955636E+02  0.11137955636E+02  0.00000000000E+00 0.  1.
          2   -1    0    0  501    0  0.00000000000E+00 -0.00000000000E+00 -0.16986597059E+04  0.16986597059E+04  0.00000000000E+00 0.  1.
         36    2    1    2    0    0 -0.35527136788E-14  0.71054273576E-14 -0.16875217503E+04  0.17097976616E+04  0.27509704793E+03 0.  0.
         25    2    3    3    0    0  0.44263643702E+01  0.18021303965E+02 -0.48244251702E+03  0.49811938530E+03  0.12258784476E+03 0.  0.
         25    2    3    3    0    0 -0.44263643702E+01 -0.18021303965E+02 -0.12050792333E+04  0.12116782763E+04  0.12491567801E+03 0.  0.
          5    1    4    4  502    0  0.14121540658E+02 -0.49338966896E+02 -0.27381151338E+03  0.27861907046E+03  0.47000000000E+01 0.  1.
         -5    1    4    4    0  502 -0.96951762879E+01  0.67360270861E+02 -0.20863100364E+03  0.21950031483E+03  0.47000000000E+01 0.  1.
          5    1    5    5  503    0 -0.41757623573E+02 -0.82828372721E+01 -0.10765411547E+04  0.10773928031E+04  0.47000000000E+01 0. -1.
         -5    1    5    5    0  503  0.37331259203E+02 -0.97384666926E+01 -0.12853807863E+03  0.13428547318E+03  0.47000000000E+01 0. -1.
<mgrwt>
<rscale>  0 0.27509705E+03</rscale>
<asrwt>0</asrwt>
<pdfrwt beam="1">  1        2 0.26133247E+00 0.27509705E+03</pdfrwt>
<pdfrwt beam="2">  1       -2 0.17135303E-02 0.27509705E+03</pdfrwt>
<totfact> 0.10385844E+04</totfact>
</mgrwt>
</event>
<event>
 9    1  0.2098759E-002  0.2667730E+03  0.7818608E-02  0.1103141E+00
         -2   -1    0    0    0  501 -0.00000000000E+00  0.00000000000E+00  0.51787325369E+02  0.51787325369E+02  0.00000000000E+00 0. -1.
          2   -1    0    0  501    0  0.00000000000E+00 -0.00000000000E+00 -0.34355809638E+03  0.34355809638E+03  0.00000000000E+00 0. -1.
         36    2    1    2    0    0  0.35527136788E-14  0.35527136788E-14 -0.29177077101E+03  0.39534542175E+03  0.26677297405E+03 0.  0.
         25    2    3    3    0    0  0.22529720475E+02 -0.29436445785E+02 -0.21557641389E+03  0.25033385359E+03  0.12173641766E+03 0.  0.
         25    2    3    3    0    0 -0.22529720475E+02  0.29436445785E+02 -0.76194357126E+02  0.14501156816E+03  0.11768042402E+03 0.  0.
          5    1    4    4  502    0  0.42134171756E+02 -0.22179602750E+02 -0.17262125259E+02  0.50865451695E+02  0.47000000000E+01 0. -1.
         -5    1    4    4    0  502 -0.19604451281E+02 -0.72568430343E+01 -0.19831428863E+03  0.19946840190E+03  0.47000000000E+01 0. -1.
          5    1    5    5  503    0 -0.15888868682E+02 -0.21449991936E+01  0.29772304967E+02  0.34139966500E+02  0.47000000000E+01 0. -1.
         -5    1    5    5    0  503 -0.66408517928E+01  0.31581444978E+02 -0.10596666209E+03  0.11087160166E+03  0.47000000000E+01 0. -1.
<mgrwt>
<rscale>  0 0.26677297E+03</rscale>
<asrwt>0</asrwt>
<pdfrwt beam="1">  1        2 0.52855092E-01 0.26677297E+03</pdfrwt>
<pdfrwt beam="2">  1       -2 0.79672807E-02 0.26677297E+03</pdfrwt>
<totfact> 0.88939638E+03</totfact>
</mgrwt>
</event>
<event>
 9    1  0.2098759E-002  0.2751288E+03  0.7818608E-02  0.1098380E+00
          2   -1    0    0  501    0  0.00000000000E+00  0.00000000000E+00  0.13945937328E+04  0.13945937328E+04  0.00000000000E+00 0. -1.
         -2   -1    0    0    0  501 -0.00000000000E+00 -0.00000000000E+00 -0.13569518677E+02  0.13569518677E+02  0.00000000000E+00 0. -1.
         36    2    1    2    0    0  0.00000000000E+00  0.00000000000E+00  0.13810242141E+04  0.14081632515E+04  0.27512881131E+03 0.  0.
         25    2    3    3    0    0 -0.37881267245E+02  0.41067282977E+02  0.65754018319E+03  0.67186439790E+03  0.12617909698E+03 0.  0.
         25    2    3    3    0    0  0.37881267245E+02 -0.41067282977E+02  0.72348403091E+03  0.73629885355E+03  0.12484128574E+03 0.  0.
          5    1    4    4  502    0 -0.37442142150E+02  0.24326560111E+02  0.65209452666E+03  0.65363832295E+03  0.47000000000E+01 0. -1.
         -5    1    4    4    0  502 -0.43912509458E+00  0.16740722866E+02  0.54456565359E+01  0.18226074949E+02  0.47000000000E+01 0. -1.
          5    1    5    5  503    0  0.12682586808E+02  0.61832726390E+01  0.61545098801E+03  0.61563064374E+03  0.47000000000E+01 0.  1.
         -5    1    5    5    0  503  0.25198680437E+02 -0.47250555616E+02  0.10803304289E+03  0.12066820981E+03  0.47000000000E+01 0.  1.
<mgrwt>
<rscale>  0 0.27512881E+03</rscale>
<asrwt>0</asrwt>
<pdfrwt beam="1">  1        2 0.21455277E+00 0.27512881E+03</pdfrwt>
<pdfrwt beam="2">  1       -2 0.20876194E-02 0.27512881E+03</pdfrwt>
<totfact> 0.11287833E+04</totfact>
</mgrwt>
</event>
<event>
 9    1  0.2098759E-002  0.2751734E+03  0.7818608E-02  0.1098355E+00
          1   -1    0    0  501    0  0.00000000000E+00  0.00000000000E+00  0.62481380847E+03  0.62481380847E+03  0.00000000000E+00 0. -1.
         -1   -1    0    0    0  501 -0.00000000000E+00 -0.00000000000E+00 -0.30297195648E+02  0.30297195648E+02  0.00000000000E+00 0. -1.
         36    2    1    2    0    0  0.35527136788E-14  0.00000000000E+00  0.59451661282E+03  0.65511100412E+03  0.27517344493E+03 0.  0.
         25    2    3    3    0    0 -0.11647005804E+02 -0.28772692361E+02  0.15275668987E+03  0.19591934867E+03  0.11868556909E+03 0.  0.
         25    2    3    3    0    0  0.11647005804E+02  0.28772692361E+02  0.44175992295E+03  0.45919165545E+03  0.12141509932E+03 0.  0.
          5    1    4    4  502    0 -0.30002026177E+02  0.70175791931E+00  0.15764145822E+03  0.16054137594E+03  0.47000000000E+01 0. -1.
         -5    1    4    4    0  502  0.18355020373E+02 -0.29474450280E+02 -0.48847683498E+01  0.35377972724E+02  0.47000000000E+01 0. -1.
          5    1    5    5  503    0  0.46829541919E+02 -0.26868944472E+02  0.13621680813E+03  0.14660168822E+03  0.47000000000E+01 0. -1.
         -5    1    5    5    0  503 -0.35182536115E+02  0.55641636832E+02  0.30554311482E+03  0.31258996723E+03  0.47000000000E+01 0. -1.
<mgrwt>
<rscale>  0 0.27517344E+03</rscale>
<asrwt>0</asrwt>
<pdfrwt beam="1">  1        1 0.96125192E-01 0.27517344E+03</pdfrwt>
<pdfrwt beam="2">  1       -1 0.46611075E-02 0.27517344E+03</pdfrwt>
<totfact> 0.64747110E+03</totfact>
</mgrwt>
</event>
<event>
 9    1  0.2098759E-002  0.2748930E+03  0.7818608E-02  0.1098511E+00
          2   -1    0    0  501    0  0.00000000000E+00  0.00000000000E+00  0.11675997793E+04  0.11675997793E+04  0.00000000000E+00 0. -1.
         -2   -1    0    0    0  501 -0.00000000000E+00 -0.00000000000E+00 -0.16179813147E+02  0.16179813147E+02  0.00000000000E+00 0. -1.
         36    2    1    2    0    0 -0.35527136788E-14  0.00000000000E+00  0.11514199661E+04  0.11837795924E+04  0.27489304290E+03 0.  0.
         25    2    3    3    0    0  0.31022643801E+02  0.95681999823E+01  0.75936300901E+03  0.77103867542E+03  0.12967075485E+03 0.  0.
         25    2    3    3    0    0 -0.31022643801E+02 -0.95681999823E+01  0.39205695712E+03  0.41274091701E+03  0.12486974038E+03 0.  0.
          5    1    4    4  502    0  0.75042851270E+02  0.22105713029E+02  0.60221601115E+03  0.60729425007E+03  0.47000000000E+01 0. -1.
         -5    1    4    4    0  502 -0.44020207468E+02 -0.12537513046E+02  0.15714699785E+03  0.16374442535E+03  0.47000000000E+01 0. -1.
          5    1    5    5  503    0 -0.18396159425E+02  0.14246648773E+02  0.44275666648E+01  0.24147029412E+02  0.47000000000E+01 0.  1.
         -5    1    5    5    0  503 -0.12626484377E+02 -0.23814848755E+02  0.38762939046E+03  0.38859388759E+03  0.47000000000E+01 0.  1.
<mgrwt>
<rscale>  0 0.27489304E+03</rscale>
<asrwt>0</asrwt>
<pdfrwt beam="1">  1        2 0.17963067E+00 0.27489304E+03</pdfrwt>
<pdfrwt beam="2">  1       -2 0.24892029E-02 0.27489304E+03</pdfrwt>
<totfact> 0.11648083E+04</totfact>
</mgrwt>
</event>
<event>
 9    1  0.2098759E-002  0.2753059E+03  0.7818608E-02  0.1098281E+00
          2   -1    0    0  501    0  0.00000000000E+00  0.00000000000E+00  0.80173352531E+02  0.80173352531E+02  0.00000000000E+00 0. -1.
         -2   -1    0    0    0  501 -0.00000000000E+00 -0.00000000000E+00 -0.23634197372E+03  0.23634197372E+03  0.00000000000E+00 0. -1.
         36    2    1    2    0    0  0.71054273576E-14 -0.17763568394E-14 -0.15616862119E+03  0.31651532625E+03  0.27530585447E+03 0.  0.
         25    2    3    3    0    0  0.25219233633E+02  0.75302460220E+01 -0.20130166485E+02  0.13040564858E+03  0.12612571201E+03 0.  0.
         25    2    3    3    0    0 -0.25219233633E+02 -0.75302460220E+01 -0.13603845471E+03  0.18610967767E+03  0.12424828616E+03 0.  0.
          5    1    4    4  502    0 -0.45152865471E+02  0.86038201284E+01  0.18748183406E+02  0.49863727920E+02  0.47000000000E+01 0. -1.
         -5    1    4    4    0  502  0.70372099104E+02 -0.10735741064E+01 -0.38878349891E+02  0.80541920662E+02  0.47000000000E+01 0. -1.
          5    1    5    5  503    0 -0.55921170837E+02  0.19408728142E+02 -0.19450019937E+02  0.62484152802E+02  0.47000000000E+01 0.  1.
         -5    1    5    5    0  503  0.30701937203E+02 -0.26938974164E+02 -0.11658843477E+03  0.12362552487E+03  0.47000000000E+01 0.  1.
<mgrwt>
<rscale>  0 0.27530585E+03</rscale>
<asrwt>0</asrwt>
<pdfrwt beam="1">  1        2 0.12334362E-01 0.27530585E+03</pdfrwt>
<pdfrwt beam="2">  1       -2 0.36360303E-01 0.27530585E+03</pdfrwt>
<totfact> 0.35144846E+03</totfact>
</mgrwt>
</event>
<event>
 9    1  0.2098759E-002  0.2750063E+03  0.7818608E-02  0.1098448E+00
          1   -1    0    0  501    0  0.00000000000E+00  0.00000000000E+00  0.89627315978E+03  0.89627315978E+03  0.00000000000E+00 0. -1.
         -1   -1    0    0    0  501 -0.00000000000E+00 -0.00000000000E+00 -0.21095257500E+02  0.21095257500E+02  0.00000000000E+00 0. -1.
         36    2    1    2    0    0  0.00000000000E+00  0.00000000000E+00  0.87517790228E+03  0.91736841728E+03  0.27500627699E+03 0.  0.
         25    2    3    3    0    0 -0.15582644399E+02  0.41791086194E+02  0.56469559736E+03  0.58004588470E+03  0.12483107382E+03 0.  0.
         25    2    3    3    0    0  0.15582644399E+02 -0.41791086194E+02  0.31048230493E+03  0.33732253258E+03  0.12408833799E+03 0.  0.
          5    1    4    4  502    0 -0.28198794745E+02 -0.40006869067E+02  0.23487130160E+03  0.23996320534E+03  0.47000000000E+01 0.  1.
         -5    1    4    4    0  502  0.12616150346E+02  0.81797955261E+02  0.32982429575E+03  0.34008267937E+03  0.47000000000E+01 0.  1.
          5    1    5    5  503    0  0.52368553307E+02 -0.56594652035E+02  0.26846423644E+03  0.27935739879E+03  0.47000000000E+01 0. -1.
         -5    1    5    5    0  503 -0.36785908908E+02  0.14803565841E+02  0.42018068486E+02  0.57965133788E+02  0.47000000000E+01 0. -1.
<mgrwt>
<rscale>  0 0.27500628E+03</rscale>
<asrwt>0</asrwt>
<pdfrwt beam="1">  1        1 0.13788815E+00 0.27500628E+03</pdfrwt>
<pdfrwt beam="2">  1       -1 0.32454249E-02 0.27500628E+03</pdfrwt>
<totfact> 0.64467226E+03</totfact>
</mgrwt>
</event>
<event>
 9    1  0.2098759E-002  0.2744780E+03  0.7818608E-02  0.1098744E+00
          2   -1    0    0  501    0  0.00000000000E+00  0.00000000000E+00  0.60983691530E+03  0.60983691530E+03  0.00000000000E+00 0. -1.
         -2   -1    0    0    0  501 -0.00000000000E+00 -0.00000000000E+00 -0.30884554439E+02  0.30884554439E+02  0.00000000000E+00 0. -1.
         36    2    1    2    0    0  0.00000000000E+00  0.00000000000E+00  0.57895236086E+03  0.64072146974E+03  0.27447798753E+03 0.  0.
         25    2    3    3    0    0  0.29049630918E+02  0.20931024341E+02  0.39390555174E+03  0.41377652921E+03  0.12152137095E+03 0.  0.
         25    2    3    3    0    0 -0.29049630918E+02 -0.20931024341E+02  0.18504680912E+03  0.22694494052E+03  0.12641082085E+03 0.  0.
          5    1    4    4  502    0 -0.39928796070E+02 -0.13205304199E+02  0.79581640808E+02  0.90133325514E+02  0.47000000000E+01 0.  1.
         -5    1    4    4    0  502  0.68978426987E+02  0.34136328540E+02  0.31432391093E+03  0.32364320370E+03  0.47000000000E+01 0.  1.
          5    1    5    5  503    0 -0.66059940201E+02 -0.70050247824E+01  0.17294589848E+03  0.18532501146E+03  0.47000000000E+01 0.  1.
         -5    1    5    5    0  503  0.37010309283E+02 -0.13925999559E+02  0.12100910635E+02  0.41619929062E+02  0.47000000000E+01 0.  1.
<mgrwt>
<rscale>  0 0.27447799E+03</rscale>
<asrwt>0</asrwt>
<pdfrwt beam="1">  1        2 0.93821055E-01 0.27447799E+03</pdfrwt>
<pdfrwt beam="2">  1       -2 0.47514704E-02 0.27447799E+03</pdfrwt>
<totfact> 0.10426171E+04</totfact>
</mgrwt>
</event>
<event>
 9    1  0.2098759E-002  0.2752617E+03  0.7818608E-02  0.1098305E+00
          2   -1    0    0  501    0  0.00000000000E+00  0.00000000000E+00  0.30695574410E+03  0.30695574410E+03  0.00000000000E+00 0. -1.
         -2   -1    0    0    0  501 -0.00000000000E+00 -0.00000000000E+00 -0.61710022129E+02  0.61710022129E+02  0.00000000000E+00 0. -1.
         36    2    1    2    0    0  0.00000000000E+00  0.71054273576E-14  0.24524572197E+03  0.36866576623E+03  0.27526166287E+03 0.  0.
         25    2    3    3    0    0 -0.16853955683E+02  0.51779204171E+02  0.91005750001E+02  0.16312090061E+03  0.12394046909E+03 0.  0.
         25    2    3    3    0    0  0.16853955683E+02 -0.51779204171E+02  0.15423997197E+03  0.20554486562E+03  0.12447321407E+03 0.  0.
          5    1    4    4  502    0  0.12254340410E+02 -0.29790002776E+02 -0.58837653096E+01  0.33080535341E+02  0.47000000000E+01 0.  1.
         -5    1    4    4    0  502 -0.29108296092E+02  0.81569206946E+02  0.96889515310E+02  0.13004036527E+03  0.47000000000E+01 0.  1.
          5    1    5    5  503    0 -0.31022203869E+02 -0.75826530130E+02  0.91477740971E+02  0.12289144355E+03  0.47000000000E+01 0.  1.
         -5    1    5    5    0  503  0.47876159552E+02  0.24047325960E+02  0.62762231001E+02  0.82653422067E+02  0.47000000000E+01 0.  1.
<mgrwt>
<rscale>  0 0.27526166E+03</rscale>
<asrwt>0</asrwt>
<pdfrwt beam="1">  1        2 0.47223960E-01 0.27526166E+03</pdfrwt>
<pdfrwt beam="2">  1       -2 0.94938497E-02 0.27526166E+03</pdfrwt>
<totfact> 0.76321678E+03</totfact>
</mgrwt>
</event>
<event>
 9    1  0.2098759E-002  0.2753295E+03  0.7818608E-02  0.1098268E+00
          2   -1    0    0  501    0  0.00000000000E+00  0.00000000000E+00  0.49724690327E+02  0.49724690327E+02  0.00000000000E+00 0. -1.
         -2   -1    0    0    0  501 -0.00000000000E+00 -0.00000000000E+00 -0.38113035712E+03  0.38113035712E+03  0.00000000000E+00 0. -1.
         36    2    1    2    0    0  0.35527136788E-14 -0.71054273576E-14 -0.33140566680E+03  0.43085504745E+03  0.27532954060E+03 0.  0.
         25    2    3    3    0    0 -0.31998624284E+02  0.22055910208E+02 -0.99498220996E+02  0.16446847132E+03  0.12505841414E+03 0.  0.
         25    2    3    3    0    0  0.31998624284E+02 -0.22055910208E+02 -0.23190744580E+03  0.26638657613E+03  0.12518134602E+03 0.  0.
          5    1    4    4  502    0 -0.78544980972E+02  0.27148172919E+02 -0.55490026158E+02  0.10003784450E+03  0.47000000000E+01 0. -1.
         -5    1    4    4    0  502  0.46546356687E+02 -0.50922627109E+01 -0.44008194838E+02  0.64430626827E+02  0.47000000000E+01 0. -1.
          5    1    5    5  503    0 -0.16095684090E+02  0.39939867614E+02 -0.39820709292E+02  0.58839127797E+02  0.47000000000E+01 0. -1.
         -5    1    5    5    0  503  0.48094308375E+02 -0.61995777823E+02 -0.19208673651E+03  0.20754744833E+03  0.47000000000E+01 0. -1.
<mgrwt>
<rscale>  0 0.27532954E+03</rscale>
<asrwt>0</asrwt>
<pdfrwt beam="1">  1        2 0.76499520E-02 0.27532954E+03</pdfrwt>
<pdfrwt beam="2">  1       -2 0.58635442E-01 0.27532954E+03</pdfrwt>
<totfact> 0.24913331E+03</totfact>
</mgrwt>
</event>
<event>
 9    1  0.2098759E-002  0.2736269E+03  0.7818608E-02  0.1099222E+00
         -1   -1    0    0    0  501 -0.00000000000E+00  0.00000000000E+00  0.36656376473E+02  0.36656376473E+02  0.00000000000E+00 0. -1.
          1   -1    0    0  501    0  0.00000000000E+00 -0.00000000000E+00 -0.51063217426E+03  0.51063217426E+03  0.00000000000E+00 0. -1.
         36    2    1    2    0    0 -0.88817841970E-15  0.35527136788E-14 -0.47397579779E+03  0.54728855074E+03  0.27362693741E+03 0.  0.
         25    2    3    3    0    0  0.71978719425E+01 -0.45006919697E+01 -0.15774829848E+03  0.20739404384E+03  0.13437149310E+03 0.  0.
         25    2    3    3    0    0 -0.71978719425E+01  0.45006919697E+01 -0.31622749931E+03  0.33989450689E+03  0.12432368603E+03 0.  0.
          5    1    4    4  502    0 -0.65677197903E+01  0.48066925655E+02 -0.14272771640E+03  0.15082060639E+03  0.47000000000E+01 0.  1.
         -5    1    4    4    0  502  0.13765591733E+02 -0.52567617625E+02 -0.15020582085E+02  0.56573437448E+02  0.47000000000E+01 0.  1.
          5    1    5    5  503    0 -0.74086694716E+01 -0.28704676990E+02 -0.97090528568E+01  0.31546831407E+02  0.47000000000E+01 0. -1.
         -5    1    5    5    0  503  0.21079752911E+00  0.33205368959E+02 -0.30651844645E+03  0.30834767549E+03  0.47000000000E+01 0. -1.
<mgrwt>
<rscale>  0 0.27362694E+03</rscale>
<asrwt>0</asrwt>
<pdfrwt beam="1">  1        1 0.78558798E-01 0.27362694E+03</pdfrwt>
<pdfrwt beam="2">  1       -1 0.56394424E-02 0.27362694E+03</pdfrwt>
<totfact> 0.64109684E+03</totfact>
</mgrwt>
</event>
<event>
 9    1  0.2098759E-002  0.2791023E+03  0.7818608E-02  0.1096180E+00
          2   -1    0    0  501    0  0.00000000000E+00  0.00000000000E+00  0.58396246505E+03  0.58396246505E+03  0.00000000000E+00 0. -1.
         -2   -1    0    0    0  501 -0.00000000000E+00 -0.00000000000E+00 -0.33348940715E+02  0.33348940715E+02  0.00000000000E+00 0. -1.
         36    2    1    2    0    0  0.00000000000E+00  0.00000000000E+00  0.55061352434E+03  0.61731140577E+03  0.27910234415E+03 0.  0.
         25    2    3    3    0    0  0.71788503421E+02 -0.84595698910E+01  0.35917298588E+03  0.38711023675E+03  0.12499579220E+03 0.  0.
         25    2    3    3    0    0 -0.71788503421E+02  0.84595698910E+01  0.19144053846E+03  0.23020116902E+03  0.10544166588E+03 0.  0.
          5    1    4    4  502    0  0.85195684385E+02 -0.41093072284E+02  0.16983106345E+03  0.19445211580E+03  0.47000000000E+01 0.  1.
         -5    1    4    4    0  502 -0.13407180964E+02  0.32633502393E+02  0.18934192242E+03  0.19265812095E+03  0.47000000000E+01 0.  1.
          5    1    5    5  503    0 -0.75346636918E+02  0.26916406614E+02  0.67587127562E+02  0.10484139665E+03  0.47000000000E+01 0. -1.
         -5    1    5    5    0  503  0.35581334970E+01 -0.18456836723E+02  0.12385341090E+03  0.12535977237E+03  0.47000000000E+01 0. -1.
<mgrwt>
<rscale>  0 0.27910234E+03</rscale>
<asrwt>0</asrwt>
<pdfrwt beam="1">  1        2 0.89840372E-01 0.27910234E+03</pdfrwt>
<pdfrwt beam="2">  1       -2 0.51306067E-02 0.27910234E+03</pdfrwt>
<totfact> 0.97633638E+03</totfact>
</mgrwt>
</event>
<event>
 9    1  0.2098759E-002  0.2740621E+03  0.7818608E-02  0.1098977E+00
         -1   -1    0    0    0  501 -0.00000000000E+00  0.00000000000E+00  0.55699796839E+02  0.55699796839E+02  0.00000000000E+00 0.  1.
          1   -1    0    0  501    0  0.00000000000E+00 -0.00000000000E+00 -0.33711993877E+03  0.33711993877E+03  0.00000000000E+00 0.  1.
         36    2    1    2    0    0  0.00000000000E+00  0.00000000000E+00 -0.28142014193E+03  0.39281973561E+03  0.27406212507E+03 0.  0.
         25    2    3    3    0    0 -0.33514828890E+02 -0.49453050492E+02 -0.15403559117E+03  0.20440475145E+03  0.12035568582E+03 0.  0.
         25    2    3    3    0    0  0.33514828890E+02  0.49453050492E+02 -0.12738455076E+03  0.18841498416E+03  0.12531773428E+03 0.  0.
          5    1    4    4  502    0 -0.22237837314E+02 -0.74091628755E+02 -0.15860463048E+03  0.17652651266E+03  0.47000000000E+01 0.  1.
         -5    1    4    4    0  502 -0.11276991576E+02  0.24638578263E+02  0.45690393136E+01  0.27878238791E+02  0.47000000000E+01 0.  1.
          5    1    5    5  503    0 -0.80597131703E+01 -0.35708697619E+02 -0.65348026164E+02  0.75050147139E+02  0.47000000000E+01 0. -1.
         -5    1    5    5    0  503  0.41574542060E+02  0.85161748112E+02 -0.62036524597E+02  0.11336483702E+03  0.47000000000E+01 0. -1.
<mgrwt>
<rscale>  0 0.27406213E+03</rscale>
<asrwt>0</asrwt>
<pdfrwt beam="1">  1        1 0.51864605E-01 0.27406213E+03</pdfrwt>
<pdfrwt beam="2">  1       -1 0.85691997E-02 0.27406213E+03</pdfrwt>
<totfact> 0.58097665E+03</totfact>
</mgrwt>
</event>
<event>
 9    1  0.2098759E-002  0.2755836E+03  0.7818608E-02  0.1098126E+00
         -1   -1    0    0    0  501 -0.00000000000E+00  0.00000000000E+00  0.90279030694E+02  0.90279030694E+02  0.00000000000E+00 0. -1.
          1   -1    0    0  501    0  0.00000000000E+00 -0.00000000000E+00 -0.21030990596E+03  0.21030990596E+03  0.00000000000E+00 0. -1.
         36    2    1    2    0    0  0.00000000000E+00  0.00000000000E+00 -0.12003087527E+03  0.30058893666E+03  0.27558355869E+03 0.  0.
         25    2    3    3    0    0 -0.34806212683E+00  0.58990065027E+02 -0.72185997354E+02  0.15377365365E+03  0.12229296555E+03 0.  0.
         25    2    3    3    0    0  0.34806212683E+00 -0.58990065027E+02 -0.47844877912E+02  0.14681528301E+03  0.12564094103E+03 0.  0.
          5    1    4    4  502    0 -0.60453837832E+02  0.19452580217E+02 -0.33753316997E+02  0.72072503730E+02  0.47000000000E+01 0.  1.
         -5    1    4    4    0  502  0.60105775705E+02  0.39537484810E+02 -0.38432680357E+02  0.81701149916E+02  0.47000000000E+01 0.  1.
          5    1    5    5  503    0  0.59443710296E+02 -0.47326613215E+02 -0.13495213561E+02  0.77314770912E+02  0.47000000000E+01 0.  1.
         -5    1    5    5    0  503 -0.59095648169E+02 -0.11663451811E+02 -0.34349664351E+02  0.69500512096E+02  0.47000000000E+01 0.  1.
<mgrwt>
<rscale>  0 0.27558356E+03</rscale>
<asrwt>0</asrwt>
<pdfrwt beam="1">  1        1 0.32355370E-01 0.27558356E+03</pdfrwt>
<pdfrwt beam="2">  1       -1 0.13889082E-01 0.27558356E+03</pdfrwt>
<totfact> 0.49658169E+03</totfact>
</mgrwt>
</event>
<event>
 9    1  0.2098759E-002  0.2747153E+03  0.7818608E-02  0.1098611E+00
          2   -1    0    0  501    0  0.00000000000E+00  0.00000000000E+00  0.75682119787E+03  0.75682119787E+03  0.00000000000E+00 0.  1.
         -2   -1    0    0    0  501 -0.00000000000E+00 -0.00000000000E+00 -0.24929436741E+02  0.24929436741E+02  0.00000000000E+00 0.  1.
         36    2    1    2    0    0  0.14210854715E-13 -0.17763568394E-14  0.73189176113E+03  0.78175063461E+03  0.27471531575E+03 0.  0.
         25    2    3    3    0    0  0.43021752980E+02 -0.12503785449E+02  0.36597055495E+03  0.39078501334E+03  0.12950391375E+03 0.  0.
         25    2    3    3    0    0 -0.43021752980E+02  0.12503785449E+02  0.36592120618E+03  0.39096562128E+03  0.13018668138E+03 0.  0.
          5    1    4    4  502    0  0.32532281873E+02 -0.60001060693E+02  0.10530002315E+03  0.12557333126E+03  0.47000000000E+01 0. -1.
         -5    1    4    4    0  502  0.10489471107E+02  0.47497275244E+02  0.26067053180E+03  0.26521168208E+03  0.47000000000E+01 0. -1.
          5    1    5    5  503    0 -0.72456368968E+02  0.26802357276E+02  0.34070850817E+03  0.34938899424E+03  0.47000000000E+01 0. -1.
         -5    1    5    5    0  503  0.29434615988E+02 -0.14298571827E+02  0.25212698011E+02  0.41576627035E+02  0.47000000000E+01 0. -1.
<mgrwt>
<rscale>  0 0.27471532E+03</rscale>
<asrwt>0</asrwt>
<pdfrwt beam="1">  1        2 0.11643401E+00 0.27471532E+03</pdfrwt>
<pdfrwt beam="2">  1       -2 0.38352985E-02 0.27471532E+03</pdfrwt>
<totfact> 0.11107395E+04</totfact>
</mgrwt>
</event>
<event>
 9    1  0.2098759E-002  0.2753792E+03  0.7818608E-02  0.1098240E+00
         -1   -1    0    0    0  501 -0.00000000000E+00  0.00000000000E+00  0.11919192171E+02  0.11919192171E+02  0.00000000000E+00 0. -1.
          1   -1    0    0  501    0  0.00000000000E+00 -0.00000000000E+00 -0.15905799174E+04  0.15905799174E+04  0.00000000000E+00 0. -1.
         36    2    1    2    0    0  0.00000000000E+00  0.71054273576E-14 -0.15786607252E+04  0.16024991095E+04  0.27537921271E+03 0.  0.
         25    2    3    3    0    0 -0.22669625524E+02 -0.38375301678E+02 -0.56113490336E+03  0.57613212769E+03  0.12275696760E+03 0.  0.
         25    2    3    3    0    0  0.22669625524E+02  0.38375301678E+02 -0.10175258218E+04  0.10263669818E+04  0.12682195240E+03 0.  0.
          5    1    4    4  502    0 -0.32237265056E+02  0.30448201823E+01 -0.33718716533E+02  0.46984614853E+02  0.47000000000E+01 0.  1.
         -5    1    4    4    0  502  0.95676395321E+01 -0.41420121860E+02 -0.52741618682E+03  0.52914751284E+03  0.47000000000E+01 0.  1.
          5    1    5    5  503    0  0.77301674053E+01 -0.25826125121E+02 -0.76015859126E+03  0.76065098311E+03  0.47000000000E+01 0. -1.
         -5    1    5    5    0  503  0.14939458119E+02  0.64201426799E+02 -0.25736723058E+03  0.26571599874E+03  0.47000000000E+01 0. -1.
<mgrwt>
<rscale>  0 0.27537921E+03</rscale>
<asrwt>0</asrwt>
<pdfrwt beam="1">  1        1 0.24470468E+00 0.27537921E+03</pdfrwt>
<pdfrwt beam="2">  1       -1 0.18337213E-02 0.27537921E+03</pdfrwt>
<totfact> 0.48546575E+03</totfact>
</mgrwt>
</event>
<event>
 8    1  0.2098759E-002  0.3117127E+03  0.7818608E-02  0.1079528E+00
          2   -1    0    0  501    0  0.00000000000E+00  0.00000000000E+00  0.35984672831E+04  0.35984672831E+04  0.00000000000E+00 0. -1.
         -2   -1    0    0    0  501 -0.00000000000E+00 -0.00000000000E+00 -0.67504307589E+01  0.67504307589E+01  0.00000000000E+00 0. -1.
         25    2    1    2    0    0  0.70420573568E+02 -0.55344488707E+02  0.17732949674E+04  0.17807163085E+04  0.13547494398E+03 0.  0.
         25    2    1    2    0    0 -0.70420573568E+02  0.55344488707E+02  0.18184218850E+04  0.18245014054E+04  0.11884930292E+03 0.  0.
          5    1    3    3  502    0  0.25644004551E+01 -0.85064489033E+02  0.11140219266E+04  0.11172777123E+04  0.47000000000E+01 0.  1.
         -5    1    3    3    0  502  0.67856173113E+02  0.29720000327E+02  0.65927304077E+03  0.66343859620E+03  0.47000000000E+01 0.  1.
          5    1    4    4  503    0  0.23404500398E+02 -0.36535142392E+01  0.11696660843E+03  0.11943364808E+03  0.47000000000E+01 0. -1.
         -5    1    4    4    0  503 -0.93825073966E+02  0.58998002946E+02  0.17014552766E+04  0.17050677573E+04  0.47000000000E+01 0. -1.
<mgrwt>
<rscale>  0 0.31171272E+03</rscale>
<asrwt>0</asrwt>
<pdfrwt beam="1">  1        2 0.55360882E+00 0.31171272E+03</pdfrwt>
<pdfrwt beam="2">  1       -2 0.10385307E-02 0.31171272E+03</pdfrwt>
<totfact> 0.17472563E+03</totfact>
</mgrwt>
</event>
<event>
 9    1  0.2098759E-002  0.2758191E+03  0.7818608E-02  0.1097995E+00
          1   -1    0    0  501    0  0.00000000000E+00  0.00000000000E+00  0.26743404774E+03  0.26743404774E+03  0.00000000000E+00 0.  1.
         -1   -1    0    0    0  501 -0.00000000000E+00 -0.00000000000E+00 -0.71116762704E+02  0.71116762704E+02  0.00000000000E+00 0.  1.
         36    2    1    2    0    0  0.00000000000E+00 -0.71054273576E-14  0.19631728504E+03  0.33855081045E+03  0.27581909805E+03 0.  0.
         25    2    3    3    0    0 -0.47188106626E+02  0.38767814191E+02  0.12687203225E+03  0.18389036321E+03  0.11827718415E+03 0.  0.
         25    2    3    3    0    0  0.47188106626E+02 -0.38767814191E+02  0.69445252793E+02  0.15466044724E+03  0.12396592266E+03 0.  0.
          5    1    4    4  502    0 -0.10787259742E+02  0.35919121293E+02  0.13984122515E+03  0.14485926446E+03  0.47000000000E+01 0.  1.
         -5    1    4    4    0  502 -0.36400846884E+02  0.28486928973E+01 -0.12969192906E+02  0.39031098751E+02  0.47000000000E+01 0.  1.
          5    1    5    5  503    0  0.43313822403E+02  0.19930317124E+02  0.81395764787E+02  0.94449273566E+02  0.47000000000E+01 0. -1.
         -5    1    5    5    0  503  0.38742842226E+01 -0.58698131315E+02 -0.11950511994E+02  0.60211173672E+02  0.47000000000E+01 0. -1.
<mgrwt>
<rscale>  0 0.27581910E+03</rscale>
<asrwt>0</asrwt>
<pdfrwt beam="1">  1        1 0.41143699E-01 0.27581910E+03</pdfrwt>
<pdfrwt beam="2">  1       -1 0.10941040E-01 0.27581910E+03</pdfrwt>
<totfact> 0.53343353E+03</totfact>
</mgrwt>
</event>
<event>
 9    1  0.2098759E-002  0.2757774E+03  0.7818608E-02  0.1098018E+00
         -2   -1    0    0    0  501 -0.00000000000E+00  0.00000000000E+00  0.61066027223E+01  0.61066027223E+01  0.00000000000E+00 0. -1.
          2   -1    0    0  501    0  0.00000000000E+00 -0.00000000000E+00 -0.31135621186E+04  0.31135621186E+04  0.00000000000E+00 0. -1.
         36    2    1    2    0    0  0.00000000000E+00  0.00000000000E+00 -0.31074555159E+04  0.31196687213E+04  0.27577735157E+03 0.  0.
         25    2    3    3    0    0  0.33962569371E+02  0.37897985560E+02 -0.12559620014E+04  0.12631907844E+04  0.12498278048E+03 0.  0.
         25    2    3    3    0    0 -0.33962569371E+02 -0.37897985560E+02 -0.18514935145E+04  0.18564779369E+04  0.12606499388E+03 0.  0.
          5    1    4    4  502    0  0.58436774647E+02  0.44682536200E+01 -0.11053746037E+04  0.11069371827E+04  0.47000000000E+01 0.  1.
         -5    1    4    4    0  502 -0.24474205276E+02  0.33429731940E+02 -0.15058739764E+03  0.15625360165E+03  0.47000000000E+01 0.  1.
          5    1    5    5  503    0  0.16767407757E+02 -0.69583740702E+02 -0.77446738049E+03  0.77778201083E+03  0.47000000000E+01 0.  1.
         -5    1    5    5    0  503 -0.50729977128E+02  0.31685755142E+02 -0.10770261340E+04  0.10786959261E+04  0.47000000000E+01 0.  1.
<mgrwt>
<rscale>  0 0.27577735E+03</rscale>
<asrwt>0</asrwt>
<pdfrwt beam="1">  1        2 0.47900858E+00 0.27577735E+03</pdfrwt>
<pdfrwt beam="2">  1       -2 0.93947926E-03 0.27577735E+03</pdfrwt>
<totfact> 0.41581332E+03</totfact>
</mgrwt>
</event>
<event>
 9    1  0.2098759E-002  0.2743823E+03  0.7818608E-02  0.1098797E+00
          2   -1    0    0  501    0  0.00000000000E+00  0.00000000000E+00  0.89328624355E+02  0.89328624355E+02  0.00000000000E+00 0.  1.
         -2   -1    0    0    0  501 -0.00000000000E+00 -0.00000000000E+00 -0.21069857558E+03  0.21069857558E+03  0.00000000000E+00 0.  1.
         36    2    1    2    0    0 -0.35527136788E-14 -0.71054273576E-14 -0.12136995123E+03  0.30002719994E+03  0.27438231656E+03 0.  0.
         25    2    3    3    0    0 -0.29148470822E+02 -0.42213309068E+02 -0.79690850901E+02  0.15774721765E+03  0.12610295851E+03 0.  0.
         25    2    3    3    0    0  0.29148470822E+02  0.42213309068E+02 -0.41679100326E+02  0.14227998229E+03  0.12599543302E+03 0.  0.
          5    1    4    4  502    0  0.21372896514E+02 -0.26399981799E+02 -0.96173130804E+02  0.10210348100E+03  0.47000000000E+01 0.  1.
         -5    1    4    4    0  502 -0.50521367336E+02 -0.15813327269E+02  0.16482279903E+02  0.55643736643E+02  0.47000000000E+01 0.  1.
          5    1    5    5  503    0  0.33685034693E+02 -0.39375074033E+02 -0.40286336867E+01  0.52186185018E+02  0.47000000000E+01 0.  1.
         -5    1    5    5    0  503 -0.45365638718E+01  0.81588383100E+02 -0.37650466640E+02  0.90093797272E+02  0.47000000000E+01 0.  1.
<mgrwt>
<rscale>  0 0.27438232E+03</rscale>
<asrwt>0</asrwt>
<pdfrwt beam="1">  1        2 0.13742865E-01 0.27438232E+03</pdfrwt>
<pdfrwt beam="2">  1       -2 0.32415165E-01 0.27438232E+03</pdfrwt>
<totfact> 0.38183593E+03</totfact>
</mgrwt>
</event>
<event>
 9    1  0.2098759E-002  0.2764376E+03  0.7818608E-02  0.1097651E+00
         -2   -1    0    0    0  501 -0.00000000000E+00  0.00000000000E+00  0.13470883345E+02  0.13470883345E+02  0.00000000000E+00 0. -1.
          2   -1    0    0  501    0  0.00000000000E+00 -0.00000000000E+00 -0.14182020753E+04  0.14182020753E+04  0.00000000000E+00 0. -1.
         36    2    1    2    0    0 -0.71054273576E-14  0.00000000000E+00 -0.14047311920E+04  0.14316729586E+04  0.27643758583E+03 0.  0.
         25    2    3    3    0    0 -0.52805136013E+02  0.87438507982E+01 -0.54639354618E+03  0.56258920647E+03  0.12286525388E+03 0.  0.
         25    2    3    3    0    0  0.52805136013E+02 -0.87438507982E+01 -0.85833764577E+03  0.86908375217E+03  0.12529252502E+03 0.  0.
          5    1    4    4  502    0 -0.27828256626E+02 -0.45772620038E+02 -0.41013259539E+03  0.41364281744E+03  0.47000000000E+01 0. -1.
         -5    1    4    4    0  502 -0.24976879387E+02  0.54516470836E+02 -0.13626095079E+03  0.14894638903E+03  0.47000000000E+01 0. -1.
          5    1    5    5  503    0  0.18312277753E+02 -0.43391424691E+02 -0.11828736482E+03  0.12740543916E+03  0.47000000000E+01 0. -1.
         -5    1    5    5    0  503  0.34492858260E+02  0.34647573893E+02 -0.74005028095E+03  0.74167831301E+03  0.47000000000E+01 0. -1.
<mgrwt>
<rscale>  0 0.27643759E+03</rscale>
<asrwt>0</asrwt>
<pdfrwt beam="1">  1        2 0.21818493E+00 0.27643759E+03</pdfrwt>
<pdfrwt beam="2">  1       -2 0.20724436E-02 0.27643759E+03</pdfrwt>
<totfact> 0.11079384E+04</totfact>
</mgrwt>
</event>
<event>
 9    1  0.2098759E-002  0.2754788E+03  0.7818608E-02  0.1098184E+00
          1   -1    0    0  501    0  0.00000000000E+00  0.00000000000E+00  0.38377130865E+02  0.38377130865E+02  0.00000000000E+00 0.  1.
         -1   -1    0    0    0  501 -0.00000000000E+00 -0.00000000000E+00 -0.49436045562E+03  0.49436045562E+03  0.00000000000E+00 0.  1.
         36    2    1    2    0    0 -0.71054273576E-14  0.00000000000E+00 -0.45598332475E+03  0.53273758648E+03  0.27547875344E+03 0.  0.
         25    2    3    3    0    0  0.32357808512E+02 -0.47834274950E+02 -0.15645290022E+03  0.20301449596E+03  0.11576800055E+03 0.  0.
         25    2    3    3    0    0 -0.32357808512E+02  0.47834274950E+02 -0.29953042453E+03  0.32972309052E+03  0.12515468658E+03 0.  0.
          5    1    4    4  502    0 -0.15374602862E+02 -0.24757998401E+01 -0.13140521146E+03  0.13240818553E+03  0.47000000000E+01 0.  1.
         -5    1    4    4    0  502  0.47732411373E+02 -0.45358475110E+02 -0.25047688765E+02  0.70606310428E+02  0.47000000000E+01 0.  1.
          5    1    5    5  503    0 -0.12846578766E+01 -0.16025563433E+02  0.46043812429E+01  0.17371222060E+02  0.47000000000E+01 0. -1.
         -5    1    5    5    0  503 -0.31073150635E+02  0.63859838383E+02 -0.30413480577E+03  0.31235186846E+03  0.47000000000E+01 0. -1.
<mgrwt>
<rscale>  0 0.27547875E+03</rscale>
<asrwt>0</asrwt>
<pdfrwt beam="1">  1        1 0.59041740E-02 0.27547875E+03</pdfrwt>
<pdfrwt beam="2">  1       -1 0.76055455E-01 0.27547875E+03</pdfrwt>
<totfact> 0.23884621E+03</totfact>
</mgrwt>
</event>
<event>
 9    1  0.2098759E-002  0.2751283E+03  0.7818608E-02  0.1098380E+00
          2   -1    0    0  501    0  0.00000000000E+00  0.00000000000E+00  0.13497339492E+04  0.13497339492E+04  0.00000000000E+00 0. -1.
         -2   -1    0    0    0  501 -0.00000000000E+00 -0.00000000000E+00 -0.14020463322E+02  0.14020463322E+02  0.00000000000E+00 0. -1.
         36    2    1    2    0    0 -0.17763568394E-14  0.71054273576E-14  0.13357134858E+04  0.13637544125E+04  0.27512829973E+03 0.  0.
         25    2    3    3    0    0  0.78512256171E+01 -0.14922901548E+02  0.88622907160E+03  0.89681369941E+03  0.13633968376E+03 0.  0.
         25    2    3    3    0    0 -0.78512256171E+01  0.14922901548E+02  0.44948441424E+03  0.46694071307E+03  0.12535172973E+03 0.  0.
          5    1    4    4  502    0 -0.51026539267E+01  0.41964866072E+02  0.10350098618E+03  0.11190009474E+03  0.47000000000E+01 0. -1.
         -5    1    4    4    0  502  0.12953879544E+02 -0.56887767620E+02  0.78272808542E+03  0.78491360467E+03  0.47000000000E+01 0. -1.
          5    1    5    5  503    0 -0.42994357419E+01  0.50510345373E+02  0.41120030861E+03  0.41433991353E+03  0.47000000000E+01 0.  1.
         -5    1    5    5    0  503 -0.35517898752E+01 -0.35587443825E+02  0.38284105629E+02  0.52600799548E+02  0.47000000000E+01 0.  1.
<mgrwt>
<rscale>  0 0.27512830E+03</rscale>
<asrwt>0</asrwt>
<pdfrwt beam="1">  1        2 0.20765127E+00 0.27512830E+03</pdfrwt>
<pdfrwt beam="2">  1       -2 0.21569954E-02 0.27512830E+03</pdfrwt>
<totfact> 0.11380792E+04</totfact>
</mgrwt>
</event>
<event>
 9    1  0.2098759E-002  0.2710194E+03  0.7818608E-02  0.1100698E+00
         -2   -1    0    0    0  501 -0.00000000000E+00  0.00000000000E+00  0.15129622407E+03  0.15129622407E+03  0.00000000000E+00 0. -1.
          2   -1    0    0  501    0  0.00000000000E+00 -0.00000000000E+00 -0.12137039646E+03  0.12137039646E+03  0.00000000000E+00 0. -1.
         36    2    1    2    0    0  0.00000000000E+00  0.00000000000E+00  0.29925827611E+02  0.27266662054E+03  0.27101942882E+03 0.  0.
         25    2    3    3    0    0  0.31031822677E+02  0.34008330689E+02  0.51582715689E+02  0.13644273485E+03  0.11762781457E+03 0.  0.
         25    2    3    3    0    0 -0.31031822677E+02 -0.34008330689E+02 -0.21656888078E+02  0.13622388569E+03  0.12636607795E+03 0.  0.
          5    1    4    4  502    0  0.12364035744E+01  0.74968808573E+02  0.35506469415E+02  0.83094225569E+02  0.47000000000E+01 0. -1.
         -5    1    4    4    0  502  0.29795419103E+02 -0.40960477884E+02  0.16076246274E+02  0.53348509279E+02  0.47000000000E+01 0. -1.
          5    1    5    5  503    0  0.34943459576E+02  0.20029782813E+02 -0.29950219153E+02  0.50411736669E+02  0.47000000000E+01 0.  1.
         -5    1    5    5    0  503 -0.65975282254E+02 -0.54038113501E+02  0.82933310746E+01  0.85812149021E+02  0.47000000000E+01 0.  1.
<mgrwt>
<rscale>  0 0.27101943E+03</rscale>
<asrwt>0</asrwt>
<pdfrwt beam="1">  1        2 0.18672369E-01 0.27101943E+03</pdfrwt>
<pdfrwt beam="2">  1       -2 0.23276342E-01 0.27101943E+03</pdfrwt>
<totfact> 0.48165749E+03</totfact>
</mgrwt>
</event>
<event>
 9    1  0.2098759E-002  0.2749118E+03  0.7818608E-02  0.1098501E+00
         -2   -1    0    0    0  501 -0.00000000000E+00  0.00000000000E+00  0.26607339098E+02  0.26607339098E+02  0.00000000000E+00 0.  1.
          2   -1    0    0  501    0  0.00000000000E+00 -0.00000000000E+00 -0.71010927252E+03  0.71010927252E+03  0.00000000000E+00 0.  1.
         36    2    1    2    0    0  0.00000000000E+00 -0.71054273576E-14 -0.68350193342E+03  0.73671661161E+03  0.27491175465E+03 0.  0.
         25    2    3    3    0    0 -0.42395601436E+02  0.33466889404E+01 -0.43094469457E+03  0.45149294441E+03  0.12776526025E+03 0.  0.
         25    2    3    3    0    0  0.42395601436E+02 -0.33466889404E+01 -0.25255723885E+03  0.28522366720E+03  0.12553403559E+03 0.  0.
          5    1    4    4  502    0  0.21099186745E+02 -0.32599321677E+02 -0.49423726667E+02  0.63029248867E+02  0.47000000000E+01 0. -1.
         -5    1    4    4    0  502 -0.63494788181E+02  0.35946010617E+02 -0.38152096790E+03  0.38846369554E+03  0.47000000000E+01 0. -1.
          5    1    5    5  503    0  0.70359144862E+02  0.24646513252E+02 -0.85749778976E+02  0.11372323630E+03  0.47000000000E+01 0.  1.
         -5    1    5    5    0  503 -0.27963543426E+02 -0.27993202192E+02 -0.16680745987E+03  0.17150043090E+03  0.47000000000E+01 0.  1.
<mgrwt>
<rscale>  0 0.27491175E+03</rscale>
<asrwt>0</asrwt>
<pdfrwt beam="1">  1        2 0.10924759E+00 0.27491175E+03</pdfrwt>
<pdfrwt beam="2">  1       -2 0.40934364E-02 0.27491175E+03</pdfrwt>
<totfact> 0.10893990E+04</totfact>
</mgrwt>
</event>
<event>
 9    1  0.2098759E-002  0.2771172E+03  0.7818608E-02  0.1097274E+00
         -1   -1    0    0    0  501 -0.00000000000E+00  0.00000000000E+00  0.36822541782E+02  0.36822541782E+02  0.00000000000E+00 0.  1.
          1   -1    0    0  501    0  0.00000000000E+00 -0.00000000000E+00 -0.52137871346E+03  0.52137871346E+03  0.00000000000E+00 0.  1.
         36    2    1    2    0    0  0.00000000000E+00 -0.71054273576E-14 -0.48455617168E+03  0.55820125525E+03  0.27711722762E+03 0.  0.
         25    2    3    3    0    0 -0.53697862870E+02 -0.32245869284E+02 -0.23086711461E+03  0.26942304615E+03  0.12395925389E+03 0.  0.
         25    2    3    3    0    0  0.53697862870E+02  0.32245869284E+02 -0.25368905707E+03  0.28877820910E+03  0.12292867774E+03 0.  0.
          5    1    4    4  502    0 -0.14604160637E+02 -0.41875237575E+02 -0.22389357394E+03  0.22829200486E+03  0.47000000000E+01 0.  1.
         -5    1    4    4    0  502 -0.39093702233E+02  0.96293682910E+01 -0.69735406682E+01  0.41131041288E+02  0.47000000000E+01 0.  1.
          5    1    5    5  503    0  0.33957288048E+01 -0.19997260431E+02 -0.19292978307E+03  0.19405002601E+03  0.47000000000E+01 0. -1.
         -5    1    5    5    0  503  0.50302134066E+02  0.52243129715E+02 -0.60759273997E+02  0.94728183085E+02  0.47000000000E+01 0. -1.
<mgrwt>
<rscale>  0 0.27711723E+03</rscale>
<asrwt>0</asrwt>
<pdfrwt beam="1">  1        1 0.80212108E-01 0.27711723E+03</pdfrwt>
<pdfrwt beam="2">  1       -1 0.56650066E-02 0.27711723E+03</pdfrwt>
<totfact> 0.61949413E+03</totfact>
</mgrwt>
</event>
<event>
 9    1  0.2098759E-002  0.2742813E+03  0.7818608E-02  0.1098854E+00
          2   -1    0    0  501    0  0.00000000000E+00  0.00000000000E+00  0.20899884074E+04  0.20899884074E+04  0.00000000000E+00 0.  1.
         -2   -1    0    0    0  501 -0.00000000000E+00 -0.00000000000E+00 -0.89988785042E+01  0.89988785042E+01  0.00000000000E+00 0.  1.
         36    2    1    2    0    0  0.35527136788E-14  0.00000000000E+00  0.20809895289E+04  0.20989872859E+04  0.27428125531E+03 0.  0.
         25    2    3    3    0    0 -0.11117776624E+02  0.57191014803E+02  0.11815340056E+04  0.11893411552E+04  0.12294454029E+03 0.  0.
         25    2    3    3    0    0  0.11117776624E+02 -0.57191014803E+02  0.89945552333E+03  0.90964613071E+03  0.12264349777E+03 0.  0.
          5    1    4    4  502    0  0.17315919968E+02  0.88284536795E+02  0.91911175135E+03  0.92351637885E+03  0.47000000000E+01 0. -1.
         -5    1    4    4    0  502 -0.28433696592E+02 -0.31093521993E+02  0.26242225424E+03  0.26582477637E+03  0.47000000000E+01 0. -1.
          5    1    5    5  503    0  0.62640332333E+02 -0.52193682216E+02  0.62485301077E+03  0.63016772907E+03  0.47000000000E+01 0.  1.
         -5    1    5    5    0  503 -0.51522555709E+02 -0.49973325871E+01  0.27460251256E+03  0.27947840164E+03  0.47000000000E+01 0.  1.
<mgrwt>
<rscale>  0 0.27428126E+03</rscale>
<asrwt>0</asrwt>
<pdfrwt beam="1">  1        2 0.32153629E+00 0.27428126E+03</pdfrwt>
<pdfrwt beam="2">  1       -2 0.13844445E-02 0.27428126E+03</pdfrwt>
<totfact> 0.88356603E+03</totfact>
</mgrwt>
</event>
<event>
 9    1  0.2098759E-002  0.2746380E+03  0.7818608E-02  0.1098654E+00
          2   -1    0    0  501    0  0.00000000000E+00  0.00000000000E+00  0.13221377828E+04  0.13221377828E+04  0.00000000000E+00 0.  1.
         -2   -1    0    0    0  501 -0.00000000000E+00 -0.00000000000E+00 -0.14262132282E+02  0.14262132282E+02  0.00000000000E+00 0.  1.
         36    2    1    2    0    0  0.00000000000E+00  0.00000000000E+00  0.13078756505E+04  0.13363999151E+04  0.27463797227E+03 0.  0.
         25    2    3    3    0    0 -0.42364502357E+02 -0.34876143781E+02  0.57378898707E+03  0.59055667811E+03  0.12850016310E+03 0.  0.
         25    2    3    3    0    0  0.42364502357E+02  0.34876143781E+02  0.73408666344E+03  0.74584323696E+03  0.11994919013E+03 0.  0.
          5    1    4    4  502    0  0.52745802073E+01 -0.34011481031E+01  0.48389471997E+03  0.48395824098E+03  0.47000000000E+01 0.  1.
         -5    1    4    4    0  502 -0.47639082564E+02 -0.31474995678E+02  0.89894267106E+02  0.10659843713E+03  0.47000000000E+01 0.  1.
          5    1    5    5  503    0  0.39465629359E+02 -0.30142603826E+01  0.69225895621E+02  0.79880762958E+02  0.47000000000E+01 0.  1.
         -5    1    5    5    0  503  0.28988729985E+01  0.37890404164E+02  0.66486076782E+03  0.66596247400E+03  0.47000000000E+01 0.  1.
<mgrwt>
<rscale>  0 0.27463797E+03</rscale>
<asrwt>0</asrwt>
<pdfrwt beam="1">  1        2 0.20340572E+00 0.27463797E+03</pdfrwt>
<pdfrwt beam="2">  1       -2 0.21941752E-02 0.27463797E+03</pdfrwt>
<totfact> 0.11491501E+04</totfact>
</mgrwt>
</event>
<event>
 9    1  0.2098759E-002  0.2743598E+03  0.7818608E-02  0.1098810E+00
         -1   -1    0    0    0  501 -0.00000000000E+00  0.00000000000E+00  0.83713060827E+02  0.83713060827E+02  0.00000000000E+00 0. -1.
          1   -1    0    0  501    0  0.00000000000E+00 -0.00000000000E+00 -0.22479562376E+03  0.22479562376E+03  0.00000000000E+00 0. -1.
         36    2    1    2    0    0  0.00000000000E+00  0.00000000000E+00 -0.14108256293E+03  0.30850868459E+03  0.27435983471E+03 0.  0.
         25    2    3    3    0    0 -0.71430174321E+00 -0.49097439799E+02 -0.74579190339E+02  0.15412932420E+03  0.12562931237E+03 0.  0.
         25    2    3    3    0    0  0.71430174321E+00  0.49097439799E+02 -0.66503372596E+02  0.15437936038E+03  0.13038105508E+03 0.  0.
          5    1    4    4  502    0 -0.10359069284E+02  0.40630836980E+02 -0.10897270232E+02  0.43577697606E+02  0.47000000000E+01 0.  1.
         -5    1    4    4    0  502  0.96447675409E+01 -0.89728276779E+02 -0.63681920107E+02  0.11055162660E+03  0.47000000000E+01 0.  1.
          5    1    5    5  503    0 -0.44708329734E+02  0.71217768372E+02 -0.22392070607E+02  0.87145281603E+02  0.47000000000E+01 0. -1.
         -5    1    5    5    0  503  0.45422631477E+02 -0.22120328573E+02 -0.44111301989E+02  0.67234078782E+02  0.47000000000E+01 0. -1.
<mgrwt>
<rscale>  0 0.27435983E+03</rscale>
<asrwt>0</asrwt>
<pdfrwt beam="1">  1        1 0.34583942E-01 0.27435983E+03</pdfrwt>
<pdfrwt beam="2">  1       -1 0.12878933E-01 0.27435983E+03</pdfrwt>
<totfact> 0.51422021E+03</totfact>
</mgrwt>
</event>
<event>
 9    1  0.2098759E-002  0.2770081E+03  0.7818608E-02  0.1097334E+00
         -1   -1    0    0    0  501 -0.00000000000E+00  0.00000000000E+00  0.13973524653E+02  0.13973524653E+02  0.00000000000E+00 0. -1.
          1   -1    0    0  501    0  0.00000000000E+00 -0.00000000000E+00 -0.13728367129E+04  0.13728367129E+04  0.00000000000E+00 0. -1.
         36    2    1    2    0    0 -0.71054273576E-14 -0.13322676296E-14 -0.13588631882E+04  0.13868102376E+04  0.27700806958E+03 0.  0.
         25    2    3    3    0    0 -0.51649571394E+02 -0.33457583221E+00 -0.81431881468E+03  0.82566869955E+03  0.12627699434E+03 0.  0.
         25    2    3    3    0    0  0.51649571394E+02  0.33457583221E+00 -0.54454437356E+03  0.56114153800E+03  0.12523362459E+03 0.  0.
          5    1    4    4  502    0  0.17222429259E+02  0.31322448159E+02 -0.53488225565E+03  0.53609591048E+03  0.47000000000E+01 0.  1.
         -5    1    4    4    0  502 -0.68872000653E+02 -0.31657023991E+02 -0.27943655903E+03  0.28957278906E+03  0.47000000000E+01 0.  1.
          5    1    5    5  503    0  0.17012525326E+02  0.12651267468E+01 -0.23842753096E+01  0.17855008609E+02  0.47000000000E+01 0. -1.
         -5    1    5    5    0  503  0.34637046068E+02 -0.93055091455E+00 -0.54216009825E+03  0.54328652939E+03  0.47000000000E+01 0. -1.
<mgrwt>
<rscale>  0 0.27700807E+03</rscale>
<asrwt>0</asrwt>
<pdfrwt beam="1">  1        1 0.21120562E+00 0.27700807E+03</pdfrwt>
<pdfrwt beam="2">  1       -1 0.21497733E-02 0.27700807E+03</pdfrwt>
<totfact> 0.53701733E+03</totfact>
</mgrwt>
</event>
<event>
 9    1  0.2098759E-002  0.2749929E+03  0.7818608E-02  0.1098456E+00
          1   -1    0    0  501    0  0.00000000000E+00  0.00000000000E+00  0.14939548633E+03  0.14939548633E+03  0.00000000000E+00 0. -1.
         -1   -1    0    0    0  501 -0.00000000000E+00 -0.00000000000E+00 -0.12654518240E+03  0.12654518240E+03  0.00000000000E+00 0. -1.
         36    2    1    2    0    0  0.00000000000E+00  0.35527136788E-14  0.22850303927E+02  0.27594066873E+03  0.27499293858E+03 0.  0.
         25    2    3    3    0    0  0.58688427745E+02 -0.20583871873E+00  0.16785058150E+02  0.13960995691E+03  0.12555806613E+03 0.  0.
         25    2    3    3    0    0 -0.58688427745E+02  0.20583871873E+00  0.60652457769E+01  0.13633071182E+03  0.12290200104E+03 0.  0.
          5    1    4    4  502    0 -0.19543830900E+02 -0.17963699228E+02  0.46650623619E+02  0.53879741093E+02  0.47000000000E+01 0.  1.
         -5    1    4    4    0  502  0.78232258645E+02  0.17757860509E+02 -0.29865565469E+02  0.85730215813E+02  0.47000000000E+01 0.  1.
          5    1    5    5  503    0 -0.43350212274E+02  0.59145108477E+02  0.13779871537E+02  0.74762019906E+02  0.47000000000E+01 0. -1.
         -5    1    5    5    0  503 -0.15338215471E+02 -0.58939269758E+02 -0.77146257604E+01  0.61568691914E+02  0.47000000000E+01 0. -1.
<mgrwt>
<rscale>  0 0.27499294E+03</rscale>
<asrwt>0</asrwt>
<pdfrwt beam="1">  1        1 0.22983921E-01 0.27499294E+03</pdfrwt>
<pdfrwt beam="2">  1       -1 0.19468490E-01 0.27499294E+03</pdfrwt>
<totfact> 0.44646075E+03</totfact>
</mgrwt>
</event>
<event>
 9    1  0.2098759E-002  0.2726383E+03  0.7818608E-02  0.1099779E+00
          2   -1    0    0  501    0  0.00000000000E+00  0.00000000000E+00  0.81224191077E+03  0.81224191077E+03  0.00000000000E+00 0. -1.
         -2   -1    0    0    0  501 -0.00000000000E+00 -0.00000000000E+00 -0.22878545627E+02  0.22878545627E+02  0.00000000000E+00 0. -1.
         36    2    1    2    0    0 -0.71054273576E-14  0.35527136788E-14  0.78936336515E+03  0.83512045640E+03  0.27263832170E+03 0.  0.
         25    2    3    3    0    0  0.16734784781E+02 -0.10559208778E+02  0.24628977263E+03  0.27749731179E+03  0.12631134563E+03 0.  0.
         25    2    3    3    0    0 -0.16734784781E+02  0.10559208778E+02  0.54307359252E+03  0.55762314461E+03  0.12499237820E+03 0.  0.
          5    1    4    4  502    0  0.60168458265E+02  0.29116395386E+02  0.15407367823E+03  0.16801427372E+03  0.47000000000E+01 0.  1.
         -5    1    4    4    0  502 -0.43433673484E+02 -0.39675604164E+02  0.92216094403E+02  0.10948303807E+03  0.47000000000E+01 0.  1.
          5    1    5    5  503    0 -0.30133823217E+02  0.54717258452E+02  0.44196586787E+03  0.44638318073E+03  0.47000000000E+01 0.  1.
         -5    1    5    5    0  503  0.13399038436E+02 -0.44158049674E+02  0.10110772464E+03  0.11123996388E+03  0.47000000000E+01 0.  1.
<mgrwt>
<rscale>  0 0.27263832E+03</rscale>
<asrwt>0</asrwt>
<pdfrwt beam="1">  1        2 0.12496027E+00 0.27263832E+03</pdfrwt>
<pdfrwt beam="2">  1       -2 0.35197769E-02 0.27263832E+03</pdfrwt>
<totfact> 0.11551006E+04</totfact>
</mgrwt>
</event>
<event>
 9    1  0.2098759E-002  0.2775216E+03  0.7818608E-02  0.1097050E+00
         -1   -1    0    0    0  501 -0.00000000000E+00  0.00000000000E+00  0.64557887817E+03  0.64557887817E+03  0.00000000000E+00 0. -1.
          1   -1    0    0  501    0  0.00000000000E+00 -0.00000000000E+00 -0.29825262149E+02  0.29825262149E+02  0.00000000000E+00 0. -1.
         36    2    1    2    0    0  0.00000000000E+00  0.00000000000E+00  0.61575361602E+03  0.67540414032E+03  0.27752159757E+03 0.  0.
         25    2    3    3    0    0 -0.67395529152E+02  0.31723196070E+02  0.38642535340E+03  0.40889964115E+03  0.11102181888E+03 0.  0.
         25    2    3    3    0    0  0.67395529152E+02 -0.31723196070E+02  0.22932826263E+03  0.26650449917E+03  0.11351069342E+03 0.  0.
          5    1    4    4  502    0 -0.77438407696E+01  0.62825372686E+02  0.14612695436E+03  0.15931783112E+03  0.47000000000E+01 0.  1.
         -5    1    4    4    0  502 -0.59651688383E+02 -0.31102176616E+02  0.24029839904E+03  0.24958181003E+03  0.47000000000E+01 0.  1.
          5    1    5    5  503    0  0.29972854207E+02 -0.17001668631E+02  0.22279474574E+03  0.22549283238E+03  0.47000000000E+01 0. -1.
         -5    1    5    5    0  503  0.37422674945E+02 -0.14721527439E+02  0.65335168899E+01  0.41011666793E+02  0.47000000000E+01 0. -1.
<mgrwt>
<rscale>  0 0.27752160E+03</rscale>
<asrwt>0</asrwt>
<pdfrwt beam="1">  1        1 0.45885024E-02 0.27752160E+03</pdfrwt>
<pdfrwt beam="2">  1       -1 0.99319817E-01 0.27752160E+03</pdfrwt>
<totfact> 0.19189395E+03</totfact>
</mgrwt>
</event>
<event>
 9    1  0.2098759E-002  0.2725382E+03  0.7818608E-02  0.1099836E+00
         -1   -1    0    0    0  501 -0.00000000000E+00  0.00000000000E+00  0.28488378592E+02  0.28488378592E+02  0.00000000000E+00 0. -1.
          1   -1    0    0  501    0  0.00000000000E+00 -0.00000000000E+00 -0.65181883849E+03  0.65181883849E+03  0.00000000000E+00 0. -1.
         36    2    1    2    0    0 -0.71054273576E-14 -0.35527136788E-14 -0.62333045990E+03  0.68030721708E+03  0.27253815765E+03 0.  0.
         25    2    3    3    0    0  0.28025208011E+02  0.11983363460E+02 -0.42985312343E+03  0.44775702402E+03  0.12158795810E+03 0.  0.
         25    2    3    3    0    0 -0.28025208011E+02 -0.11983363460E+02 -0.19347733646E+03  0.23255019306E+03  0.12536785585E+03 0.  0.
          5    1    4    4  502    0  0.51119882825E+02 -0.95904274736E+01 -0.40197545301E+03  0.40535364010E+03  0.47000000000E+01 0.  1.
         -5    1    4    4    0  502 -0.23094674814E+02  0.21573790934E+02 -0.27877670421E+02  0.42403383923E+02  0.47000000000E+01 0.  1.
          5    1    5    5  503    0 -0.75350085144E+02 -0.21972266159E+02 -0.10014450392E+03  0.12732410406E+03  0.47000000000E+01 0.  1.
         -5    1    5    5    0  503  0.47324877133E+02  0.99889026986E+01 -0.93332832548E+02  0.10522608899E+03  0.47000000000E+01 0.  1.
<mgrwt>
<rscale>  0 0.27253816E+03</rscale>
<asrwt>0</asrwt>
<pdfrwt beam="1">  1        1 0.10027982E+00 0.27253816E+03</pdfrwt>
<pdfrwt beam="2">  1       -1 0.43828274E-02 0.27253816E+03</pdfrwt>
<totfact> 0.66837854E+03</totfact>
</mgrwt>
</event>
<event>
 9    1  0.2098759E-002  0.2739553E+03  0.7818608E-02  0.1099037E+00
          1   -1    0    0  501    0  0.00000000000E+00  0.00000000000E+00  0.42895405415E+03  0.42895405415E+03  0.00000000000E+00 0. -1.
         -1   -1    0    0    0  501 -0.00000000000E+00 -0.00000000000E+00 -0.43741005140E+02  0.43741005140E+02  0.00000000000E+00 0. -1.
         36    2    1    2    0    0 -0.71054273576E-14  0.00000000000E+00  0.38521304901E+03  0.47269505929E+03  0.27395533568E+03 0.  0.
         25    2    3    3    0    0  0.34127479547E+02  0.89653966700E+01  0.25286052234E+03  0.28610963718E+03  0.12913255799E+03 0.  0.
         25    2    3    3    0    0 -0.34127479547E+02 -0.89653966700E+01  0.13235252667E+03  0.18658542211E+03  0.12669595585E+03 0.  0.
          5    1    4    4  502    0  0.31642939443E+02  0.44484030421E+02  0.24266816104E+03  0.24877707081E+03  0.47000000000E+01 0.  1.
         -5    1    4    4    0  502  0.24845401040E+01 -0.35518633751E+02  0.10192361300E+02  0.37332566372E+02  0.47000000000E+01 0.  1.
          5    1    5    5  503    0 -0.62160412726E+02  0.38045279984E+02  0.96364494184E+02  0.12091139722E+03  0.47000000000E+01 0.  1.
         -5    1    5    5    0  503  0.28032933180E+02 -0.47010676654E+02  0.35988032489E+02  0.65674024885E+02  0.47000000000E+01 0.  1.
<mgrwt>
<rscale>  0 0.27395534E+03</rscale>
<asrwt>0</asrwt>
<pdfrwt beam="1">  1        1 0.65992929E-01 0.27395534E+03</pdfrwt>
<pdfrwt beam="2">  1       -1 0.67293857E-02 0.27395534E+03</pdfrwt>
<totfact> 0.61722928E+03</totfact>
</mgrwt>
</event>
<event>
 9    1  0.2098759E-002  0.2662284E+03  0.7818608E-02  0.1103458E+00
          3   -1    0    0  501    0  0.00000000000E+00  0.00000000000E+00  0.32317712975E+02  0.32317712975E+02  0.00000000000E+00 0.  1.
         -3   -1    0    0    0  501 -0.00000000000E+00 -0.00000000000E+00 -0.54828728263E+03  0.54828728263E+03  0.00000000000E+00 0.  1.
         36    2    1    2    0    0  0.71054273576E-14  0.00000000000E+00 -0.51596956965E+03  0.58060499560E+03  0.26622840591E+03 0.  0.
         25    2    3    3    0    0  0.43486174333E+02  0.55483715533E+01 -0.27065469810E+03  0.30171302879E+03  0.12591645782E+03 0.  0.
         25    2    3    3    0    0 -0.43486174333E+02 -0.55483715533E+01 -0.24531487155E+03  0.27889196682E+03  0.12521785482E+03 0.  0.
          5    1    4    4  502    0  0.35610152264E+02 -0.51420780435E+02 -0.20462751613E+03  0.21402497509E+03  0.47000000000E+01 0. -1.
         -5    1    4    4    0  502  0.78760220686E+01  0.56969151988E+02 -0.66027181976E+02  0.87688053699E+02  0.47000000000E+01 0. -1.
          5    1    5    5  503    0  0.12195238854E+02 -0.50042579735E+02 -0.15703538172E+03  0.16533355603E+03  0.47000000000E+01 0.  1.
         -5    1    5    5    0  503 -0.55681413187E+02  0.44494208181E+02 -0.88279489832E+02  0.11355841079E+03  0.47000000000E+01 0.  1.
<mgrwt>
<rscale>  0 0.26622841E+03</rscale>
<asrwt>0</asrwt>
<pdfrwt beam="1">  1        3 0.49719555E-02 0.26622841E+03</pdfrwt>
<pdfrwt beam="2">  1       -3 0.84351895E-01 0.26622841E+03</pdfrwt>
<totfact> 0.77260404E+02</totfact>
</mgrwt>
</event>
<event>
 9    1  0.2098759E-002  0.2758055E+03  0.7818608E-02  0.1098002E+00
          2   -1    0    0  501    0  0.00000000000E+00  0.00000000000E+00  0.29498087259E+03  0.29498087259E+03  0.00000000000E+00 0. -1.
         -2   -1    0    0    0  501 -0.00000000000E+00 -0.00000000000E+00 -0.64469155485E+02  0.64469155485E+02  0.00000000000E+00 0. -1.
         36    2    1    2    0    0  0.00000000000E+00  0.71054273576E-14  0.23051171711E+03  0.35945002808E+03  0.27580549480E+03 0.  0.
         25    2    3    3    0    0 -0.33755716490E+02  0.28460702046E+02  0.19100394100E+03  0.22315799152E+03  0.10661859004E+03 0.  0.
         25    2    3    3    0    0  0.33755716490E+02 -0.28460702046E+02  0.39507776106E+02  0.13629203656E+03  0.12274035563E+03 0.  0.
          5    1    4    4  502    0 -0.53994736923E+02 -0.23464590772E+02  0.10749009949E+03  0.12264676972E+03  0.47000000000E+01 0. -1.
         -5    1    4    4    0  502  0.20239020433E+02  0.51925292818E+02  0.83513841518E+02  0.10051122180E+03  0.47000000000E+01 0. -1.
          5    1    5    5  503    0 -0.76354867059E+01  0.10007750567E+02  0.70434064369E+02  0.71704275690E+02  0.47000000000E+01 0.  1.
         -5    1    5    5    0  503  0.41391203196E+02 -0.38468452613E+02 -0.30926288263E+02  0.64587760870E+02  0.47000000000E+01 0.  1.
<mgrwt>
<rscale>  0 0.27580549E+03</rscale>
<asrwt>0</asrwt>
<pdfrwt beam="1">  1        2 0.45381672E-01 0.27580549E+03</pdfrwt>
<pdfrwt beam="2">  1       -2 0.99183318E-02 0.27580549E+03</pdfrwt>
<totfact> 0.74326852E+03</totfact>
</mgrwt>
</event>
<event>
 9    1  0.2098759E-002  0.2753135E+03  0.7818608E-02  0.1098277E+00
         -2   -1    0    0    0  501 -0.00000000000E+00  0.00000000000E+00  0.16624036062E+02  0.16624036062E+02  0.00000000000E+00 0. -1.
          2   -1    0    0  501    0  0.00000000000E+00 -0.00000000000E+00 -0.11398781190E+04  0.11398781190E+04  0.00000000000E+00 0. -1.
         36    2    1    2    0    0  0.00000000000E+00  0.71054273576E-14 -0.11232540829E+04  0.11565021550E+04  0.27531345740E+03 0.  0.
         25    2    3    3    0    0  0.32957724042E+02  0.39732112166E+02 -0.67368207735E+03  0.68628229271E+03  0.12029543480E+03 0.  0.
         25    2    3    3    0    0 -0.32957724042E+02 -0.39732112166E+02 -0.44957200557E+03  0.47021986233E+03  0.12777667404E+03 0.  0.
          5    1    4    4  502    0  0.42022649596E+02  0.64243570402E+02 -0.24521997260E+03  0.25699817972E+03  0.47000000000E+01 0.  1.
         -5    1    4    4    0  502 -0.90649255538E+01 -0.24511458237E+02 -0.42846210474E+03  0.42928411298E+03  0.47000000000E+01 0.  1.
          5    1    5    5  503    0 -0.49518584259E+02 -0.39222952891E+02 -0.89023496713E+02  0.10926025438E+03  0.47000000000E+01 0. -1.
         -5    1    5    5    0  503  0.16560860217E+02 -0.50915927496E+00 -0.36054850885E+03  0.36095960795E+03  0.47000000000E+01 0. -1.
<mgrwt>
<rscale>  0 0.27531346E+03</rscale>
<asrwt>0</asrwt>
<pdfrwt beam="1">  1        2 0.17536587E+00 0.27531346E+03</pdfrwt>
<pdfrwt beam="2">  1       -2 0.25575439E-02 0.27531346E+03</pdfrwt>
<totfact> 0.11610237E+04</totfact>
</mgrwt>
</event>
<event>
 9    1  0.2098759E-002  0.2744155E+03  0.7818608E-02  0.1098779E+00
          2   -1    0    0  501    0  0.00000000000E+00  0.00000000000E+00  0.36110938261E+03  0.36110938261E+03  0.00000000000E+00 0.  1.
         -2   -1    0    0    0  501 -0.00000000000E+00 -0.00000000000E+00 -0.52133703505E+02  0.52133703505E+02  0.00000000000E+00 0.  1.
         36    2    1    2    0    0 -0.71054273576E-14  0.00000000000E+00  0.30897567911E+03  0.41324308612E+03  0.27441552060E+03 0.  0.
         25    2    3    3    0    0  0.30766048531E+02 -0.46850216678E+02  0.12866417633E+03  0.18808150918E+03  0.12521458095E+03 0.  0.
         25    2    3    3    0    0 -0.30766048531E+02  0.46850216678E+02  0.18031150278E+03  0.22516157693E+03  0.12265400584E+03 0.  0.
          5    1    4    4  502    0 -0.22128006711E+01 -0.57530718198E+02  0.13988580562E+03  0.15134334686E+03  0.47000000000E+01 0.  1.
         -5    1    4    4    0  502  0.32978849202E+02  0.10680501520E+02 -0.11221629290E+02  0.36738162329E+02  0.47000000000E+01 0.  1.
          5    1    5    5  503    0 -0.52611158393E+02  0.26632735078E+02  0.18539341209E+03  0.19460227083E+03  0.47000000000E+01 0.  1.
         -5    1    5    5    0  503  0.21845109863E+02  0.20217481600E+02 -0.50819093156E+01  0.30559306102E+02  0.47000000000E+01 0.  1.
<mgrwt>
<rscale>  0 0.27441552E+03</rscale>
<asrwt>0</asrwt>
<pdfrwt beam="1">  1        2 0.55555288E-01 0.27441552E+03</pdfrwt>
<pdfrwt beam="2">  1       -2 0.80205700E-02 0.27441552E+03</pdfrwt>
<totfact> 0.83504382E+03</totfact>
</mgrwt>
</event>
<event>
 9    1  0.2098759E-002  0.2733685E+03  0.7818608E-02  0.1099367E+00
         -1   -1    0    0    0  501 -0.00000000000E+00  0.00000000000E+00  0.13554009073E+03  0.13554009073E+03  0.00000000000E+00 0.  1.
          1   -1    0    0  501    0  0.00000000000E+00 -0.00000000000E+00 -0.13783806775E+03  0.13783806775E+03  0.00000000000E+00 0.  1.
         36    2    1    2    0    0  0.71054273576E-14  0.00000000000E+00 -0.22979770232E+01  0.27337815848E+03  0.27336850008E+03 0.  0.
         25    2    3    3    0    0 -0.34953343313E+02  0.22447798776E+02  0.37525962704E+02  0.13606098982E+03  0.12401110916E+03 0.  0.
         25    2    3    3    0    0  0.34953343313E+02 -0.22447798776E+02 -0.39823939728E+02  0.13731716867E+03  0.12467725838E+03 0.  0.
          5    1    4    4  502    0 -0.29888676716E+02 -0.48293617204E+02  0.30498654282E+02  0.64636401288E+02  0.47000000000E+01 0. -1.
         -5    1    4    4    0  502 -0.50646665966E+01  0.70741415980E+02  0.70273084221E+01  0.71424588527E+02  0.47000000000E+01 0. -1.
          5    1    5    5  503    0  0.28373985154E+02 -0.42111347549E+02  0.33472393677E+02  0.60999506263E+02  0.47000000000E+01 0.  1.
         -5    1    5    5    0  503  0.65793581588E+01  0.19663548773E+02 -0.73296333404E+02  0.76317662403E+02  0.47000000000E+01 0.  1.
<mgrwt>
<rscale>  0 0.27336850E+03</rscale>
<asrwt>0</asrwt>
<pdfrwt beam="1">  1        1 0.21205857E-01 0.27336850E+03</pdfrwt>
<pdfrwt beam="2">  1       -1 0.20852322E-01 0.27336850E+03</pdfrwt>
<totfact> 0.44257487E+03</totfact>
</mgrwt>
</event>
<event>
 9    1  0.2098759E-002  0.2753278E+03  0.7818608E-02  0.1098269E+00
          2   -1    0    0  501    0  0.00000000000E+00  0.00000000000E+00  0.42312659057E+03  0.42312659057E+03  0.00000000000E+00 0. -1.
         -2   -1    0    0    0  501 -0.00000000000E+00 -0.00000000000E+00 -0.44788836742E+02  0.44788836742E+02  0.00000000000E+00 0. -1.
         36    2    1    2    0    0  0.71054273576E-14 -0.10658141036E-13  0.37833775382E+03  0.46791542731E+03  0.27532778854E+03 0.  0.
         25    2    3    3    0    0  0.46506066020E+02 -0.19490292987E+02  0.13720157922E+03  0.19232467251E+03  0.12498728182E+03 0.  0.
         25    2    3    3    0    0 -0.46506066020E+02  0.19490292987E+02  0.24113617461E+03  0.27559075480E+03  0.12353511133E+03 0.  0.
          5    1    4    4  502    0  0.12517989136E+02  0.52755622415E+02  0.48615616035E+02  0.72975501854E+02  0.47000000000E+01 0. -1.
         -5    1    4    4    0  502  0.33988076885E+02 -0.72245915401E+02  0.88585963184E+02  0.11934917065E+03  0.47000000000E+01 0. -1.
          5    1    5    5  503    0  0.37301793857E+02  0.23637521973E+02  0.50487172256E+02  0.67239875315E+02  0.47000000000E+01 0.  1.
         -5    1    5    5    0  503 -0.83807859877E+02 -0.41472289862E+01  0.19064900235E+03  0.20835087949E+03  0.47000000000E+01 0.  1.
<mgrwt>
<rscale>  0 0.27532779E+03</rscale>
<asrwt>0</asrwt>
<pdfrwt beam="1">  1        2 0.65096396E-01 0.27532779E+03</pdfrwt>
<pdfrwt beam="2">  1       -2 0.68905906E-02 0.27532779E+03</pdfrwt>
<totfact> 0.89036089E+03</totfact>
</mgrwt>
</event>
<event>
 9    1  0.2098759E-002  0.2751343E+03  0.7818608E-02  0.1098377E+00
          1   -1    0    0  501    0  0.00000000000E+00  0.00000000000E+00  0.91877736348E+03  0.91877736348E+03  0.00000000000E+00 0.  1.
         -1   -1    0    0    0  501 -0.00000000000E+00 -0.00000000000E+00 -0.20597719857E+02  0.20597719857E+02  0.00000000000E+00 0.  1.
         36    2    1    2    0    0  0.00000000000E+00  0.71054273576E-14  0.89817964362E+03  0.93937508333E+03  0.27513428535E+03 0.  0.
         25    2    3    3    0    0 -0.54682944725E+02  0.27867068080E+02  0.34860220106E+03  0.37621749909E+03  0.12747279754E+03 0.  0.
         25    2    3    3    0    0  0.54682944725E+02 -0.27867068080E+02  0.54957744256E+03  0.56315758424E+03  0.10650963049E+03 0.  0.
          5    1    4    4  502    0 -0.51151382481E+02 -0.44053690460E+02  0.14022625109E+03  0.15570062000E+03  0.47000000000E+01 0. -1.
         -5    1    4    4    0  502 -0.35315622444E+01  0.71920758540E+02  0.20837594996E+03  0.22051687909E+03  0.47000000000E+01 0. -1.
          5    1    5    5  503    0  0.86105135201E+02 -0.21746003980E+02  0.35889821768E+03  0.36975262494E+03  0.47000000000E+01 0.  1.
         -5    1    5    5    0  503 -0.31422190476E+02 -0.61210641003E+01  0.19067922488E+03  0.19340495930E+03  0.47000000000E+01 0.  1.
<mgrwt>
<rscale>  0 0.27513429E+03</rscale>
<asrwt>0</asrwt>
<pdfrwt beam="1">  1        1 0.14135033E+00 0.27513429E+03</pdfrwt>
<pdfrwt beam="2">  1       -1 0.31688807E-02 0.27513429E+03</pdfrwt>
<totfact> 0.64128744E+03</totfact>
</mgrwt>
</event>
<event>
 9    1  0.2098759E-002  0.2743174E+03  0.7818608E-02  0.1098834E+00
          2   -1    0    0  501    0  0.00000000000E+00  0.00000000000E+00  0.20123924210E+04  0.20123924210E+04  0.00000000000E+00 0. -1.
         -2   -1    0    0    0  501 -0.00000000000E+00 -0.00000000000E+00 -0.93483313171E+01  0.93483313171E+01  0.00000000000E+00 0. -1.
         36    2    1    2    0    0 -0.71054273576E-14  0.00000000000E+00  0.20030440896E+04  0.20217407523E+04  0.27431741535E+03 0.  0.
         25    2    3    3    0    0 -0.52354621043E+02  0.25906147467E+02  0.98167087483E+03  0.99115914603E+03  0.12371989105E+03 0.  0.
         25    2    3    3    0    0  0.52354621043E+02 -0.25906147467E+02  0.10213732148E+04  0.10305816062E+04  0.12443097839E+03 0.  0.
          5    1    4    4  502    0 -0.83164451177E+02  0.39816750968E+02  0.51257352134E+03  0.52082185474E+03  0.47000000000E+01 0.  1.
         -5    1    4    4    0  502  0.30809830134E+02 -0.13910603501E+02  0.46909735349E+03  0.47033729129E+03  0.47000000000E+01 0.  1.
          5    1    5    5  503    0  0.88678694362E+02 -0.39740233992E+02  0.66836324220E+03  0.67540707026E+03  0.47000000000E+01 0.  1.
         -5    1    5    5    0  503 -0.36324073320E+02  0.13834086525E+02  0.35300997260E+03  0.35517453598E+03  0.47000000000E+01 0.  1.
<mgrwt>
<rscale>  0 0.27431742E+03</rscale>
<asrwt>0</asrwt>
<pdfrwt beam="1">  1        2 0.30959849E+00 0.27431742E+03</pdfrwt>
<pdfrwt beam="2">  1       -2 0.14382064E-02 0.27431742E+03</pdfrwt>
<totfact> 0.91827306E+03</totfact>
</mgrwt>
</event>
<event>
 9    1  0.2098759E-002  0.2757167E+03  0.7818608E-02  0.1098052E+00
         -2   -1    0    0    0  501 -0.00000000000E+00  0.00000000000E+00  0.60095265747E+02  0.60095265747E+02  0.00000000000E+00 0.  1.
          2   -1    0    0  501    0  0.00000000000E+00 -0.00000000000E+00 -0.31624652785E+03  0.31624652785E+03  0.00000000000E+00 0.  1.
         36    2    1    2    0    0  0.00000000000E+00 -0.35527136788E-14 -0.25615126210E+03  0.37634179359E+03  0.27571665987E+03 0.  0.
         25    2    3    3    0    0  0.60275184171E+02  0.84529193261E+01 -0.13057021055E+03  0.18842737969E+03  0.12145677364E+03 0.  0.
         25    2    3    3    0    0 -0.60275184171E+02 -0.84529193261E+01 -0.12558105155E+03  0.18791441390E+03  0.12584385870E+03 0.  0.
          5    1    4    4  502    0 -0.14187409507E+02  0.29761175522E+02 -0.99358678870E+02  0.10479144633E+03  0.47000000000E+01 0.  1.
         -5    1    4    4    0  502  0.74462593678E+02 -0.21308256196E+02 -0.31211531677E+02  0.83635933360E+02  0.47000000000E+01 0.  1.
          5    1    5    5  503    0  0.29854316088E+02 -0.21535093082E+02 -0.74884094012E+02  0.83574864398E+02  0.47000000000E+01 0.  1.
         -5    1    5    5    0  503 -0.90129500260E+02  0.13082173756E+02 -0.50696957540E+02  0.10433954951E+03  0.47000000000E+01 0.  1.
<mgrwt>
<rscale>  0 0.27571666E+03</rscale>
<asrwt>0</asrwt>
<pdfrwt beam="1">  1        2 0.48653312E-01 0.27571666E+03</pdfrwt>
<pdfrwt beam="2">  1       -2 0.92454254E-02 0.27571666E+03</pdfrwt>
<totfact> 0.77081860E+03</totfact>
</mgrwt>
</event>
<event>
 9    1  0.2098759E-002  0.2743774E+03  0.7818608E-02  0.1098800E+00
          1   -1    0    0  501    0  0.00000000000E+00  0.00000000000E+00  0.94034935667E+03  0.94034935667E+03  0.00000000000E+00 0. -1.
         -1   -1    0    0    0  501 -0.00000000000E+00 -0.00000000000E+00 -0.20014628293E+02  0.20014628293E+02  0.00000000000E+00 0. -1.
         36    2    1    2    0    0  0.35527136788E-14  0.35527136788E-14  0.92033472837E+03  0.96036398496E+03  0.27437742501E+03 0.  0.
         25    2    3    3    0    0 -0.19240396633E+02 -0.30451340690E+02  0.22975184329E+03  0.25702959314E+03  0.10945695614E+03 0.  0.
         25    2    3    3    0    0  0.19240396633E+02  0.30451340690E+02  0.69058288509E+03  0.70333439181E+03  0.12836303409E+03 0.  0.
          5    1    4    4  502    0 -0.32064458179E+02 -0.56244743495E+01  0.85019849886E+01  0.33972605711E+02  0.47000000000E+01 0.  1.
         -5    1    4    4    0  502  0.12824061547E+02 -0.24826866340E+02  0.22124985830E+03  0.22305698743E+03  0.47000000000E+01 0.  1.
          5    1    5    5  503    0  0.70459407143E+02  0.12488975730E+02  0.27502998408E+03  0.28422541180E+03  0.47000000000E+01 0. -1.
         -5    1    5    5    0  503 -0.51219010510E+02  0.17962364960E+02  0.41555290101E+03  0.41910898001E+03  0.47000000000E+01 0. -1.
<mgrwt>
<rscale>  0 0.27437743E+03</rscale>
<asrwt>0</asrwt>
<pdfrwt beam="1">  1        1 0.14466910E+00 0.27437743E+03</pdfrwt>
<pdfrwt beam="2">  1       -1 0.30791743E-02 0.27437743E+03</pdfrwt>
<totfact> 0.64381158E+03</totfact>
</mgrwt>
</event>
<event>
 9    1  0.2098759E-002  0.2720642E+03  0.7818608E-02  0.1100104E+00
         -2   -1    0    0    0  501 -0.00000000000E+00  0.00000000000E+00  0.69322785785E+02  0.69322785785E+02  0.00000000000E+00 0. -1.
          2   -1    0    0  501    0  0.00000000000E+00 -0.00000000000E+00 -0.26693579130E+03  0.26693579130E+03  0.00000000000E+00 0. -1.
         36    2    1    2    0    0 -0.14210854715E-13  0.53290705182E-14 -0.19761300552E+03  0.33625857709E+03  0.27206420330E+03 0.  0.
         25    2    3    3    0    0 -0.46684791022E+02  0.93028352125E+01 -0.11979851694E+03  0.18120402263E+03  0.12734677342E+03 0.  0.
         25    2    3    3    0    0  0.46684791022E+02 -0.93028352125E+01 -0.77814488579E+02  0.15505455446E+03  0.12538264541E+03 0.  0.
          5    1    4    4  502    0 -0.58962359773E+01 -0.40054226640E+02 -0.10864729706E+03  0.11604064732E+03  0.47000000000E+01 0.  1.
         -5    1    4    4    0  502 -0.40788555044E+02  0.49357061852E+02 -0.11151219878E+02  0.65163375312E+02  0.47000000000E+01 0.  1.
          5    1    5    5  503    0 -0.29436939972E+02  0.14383605507E+02 -0.66652316253E+02  0.74418027414E+02  0.47000000000E+01 0. -1.
         -5    1    5    5    0  503  0.76121730994E+02 -0.23686440719E+02 -0.11162172326E+02  0.80636527049E+02  0.47000000000E+01 0. -1.
<mgrwt>
<rscale>  0 0.27206420E+03</rscale>
<asrwt>0</asrwt>
<pdfrwt beam="1">  1        2 0.41067045E-01 0.27206420E+03</pdfrwt>
<pdfrwt beam="2">  1       -2 0.10665044E-01 0.27206420E+03</pdfrwt>
<totfact> 0.73684013E+03</totfact>
</mgrwt>
</event>
<event>
 9    1  0.2098759E-002  0.2747528E+03  0.7818608E-02  0.1098590E+00
          1   -1    0    0  501    0  0.00000000000E+00  0.00000000000E+00  0.13917520440E+04  0.13917520440E+04  0.00000000000E+00 0. -1.
         -1   -1    0    0    0  501 -0.00000000000E+00 -0.00000000000E+00 -0.13560084992E+02  0.13560084992E+02  0.00000000000E+00 0. -1.
         36    2    1    2    0    0 -0.71054273576E-14  0.00000000000E+00  0.13781919590E+04  0.14053121290E+04  0.27475280530E+03 0.  0.
         25    2    3    3    0    0 -0.17444670476E+02 -0.45539105019E+02  0.57336078980E+03  0.58937017766E+03  0.12742246435E+03 0.  0.
         25    2    3    3    0    0  0.17444670476E+02  0.45539105019E+02  0.80483116920E+03  0.81594195132E+03  0.12501972005E+03 0.  0.
          5    1    4    4  502    0 -0.50752393720E+02 -0.37584911321E+02  0.53069384203E+03  0.53445904894E+03  0.47000000000E+01 0. -1.
         -5    1    4    4    0  502  0.33307723244E+02 -0.79541936971E+01  0.42666947770E+02  0.54911128718E+02  0.47000000000E+01 0. -1.
          5    1    5    5  503    0  0.14257615292E+02  0.63179786304E+02  0.78871070649E+03  0.79137957613E+03  0.47000000000E+01 0.  1.
         -5    1    5    5    0  503  0.31870551842E+01 -0.17640681286E+02  0.16120462710E+02  0.24562375190E+02  0.47000000000E+01 0.  1.
<mgrwt>
<rscale>  0 0.27475281E+03</rscale>
<asrwt>0</asrwt>
<pdfrwt beam="1">  1        1 0.21411559E+00 0.27475281E+03</pdfrwt>
<pdfrwt beam="2">  1       -1 0.20861680E-02 0.27475281E+03</pdfrwt>
<totfact> 0.54488407E+03</totfact>
</mgrwt>
</event>
<event>
 9    1  0.2098759E-002  0.2758026E+03  0.7818608E-02  0.1098004E+00
          2   -1    0    0  501    0  0.00000000000E+00  0.00000000000E+00  0.19810550508E+04  0.19810550508E+04  0.00000000000E+00 0.  1.
         -2   -1    0    0    0  501 -0.00000000000E+00 -0.00000000000E+00 -0.95993135310E+01  0.95993135310E+01  0.00000000000E+00 0.  1.
         36    2    1    2    0    0  0.35527136788E-14 -0.71054273576E-14  0.19714557373E+04  0.19906543644E+04  0.27580260010E+03 0.  0.
         25    2    3    3    0    0 -0.11169691271E+02 -0.59397389813E+02  0.86237155523E+03  0.87288054880E+03  0.12075984964E+03 0.  0.
         25    2    3    3    0    0  0.11169691271E+02  0.59397389813E+02  0.11090841821E+04  0.11177738156E+04  0.12529073356E+03 0.  0.
          5    1    4    4  502    0 -0.57399931425E+02  0.39977922276E+00  0.30527503403E+03  0.31066034242E+03  0.47000000000E+01 0.  1.
         -5    1    4    4    0  502  0.46230240154E+02 -0.59797169036E+02  0.55709652120E+03  0.56222020638E+03  0.47000000000E+01 0.  1.
          5    1    5    5  503    0 -0.67013684446E+01 -0.23420701653E+02  0.55677061698E+02  0.60954596252E+02  0.47000000000E+01 0.  1.
         -5    1    5    5    0  503  0.17871059716E+02  0.82818091466E+02  0.10534071204E+04  0.10568192193E+04  0.47000000000E+01 0.  1.
<mgrwt>
<rscale>  0 0.27580260E+03</rscale>
<asrwt>0</asrwt>
<pdfrwt beam="1">  1        2 0.30477737E+00 0.27580260E+03</pdfrwt>
<pdfrwt beam="2">  1       -2 0.14768190E-02 0.27580260E+03</pdfrwt>
<totfact> 0.91760628E+03</totfact>
</mgrwt>
</event>
<event>
 9    1  0.2098759E-002  0.2783114E+03  0.7818608E-02  0.1096615E+00
          2   -1    0    0  501    0  0.00000000000E+00  0.00000000000E+00  0.20080506162E+03  0.20080506162E+03  0.00000000000E+00 0. -1.
         -2   -1    0    0    0  501 -0.00000000000E+00 -0.00000000000E+00 -0.96433385087E+02  0.96433385087E+02  0.00000000000E+00 0. -1.
         36    2    1    2    0    0  0.71054273576E-14  0.71054273576E-14  0.10437167653E+03  0.29723844671E+03  0.27831142150E+03 0.  0.
         25    2    3    3    0    0  0.33771055546E+02  0.36915327462E+02  0.76894447747E+02  0.16131406241E+03  0.13268852642E+03 0.  0.
         25    2    3    3    0    0 -0.33771055546E+02 -0.36915327462E+02  0.27477228787E+02  0.13592438430E+03  0.12335807452E+03 0.  0.
          5    1    4    4  502    0 -0.39022692212E+02 -0.18644669195E+02  0.31001109706E+01  0.43613012793E+02  0.47000000000E+01 0. -1.
         -5    1    4    4    0  502  0.72793747758E+02  0.55559996657E+02  0.73794336776E+02  0.11770104962E+03  0.47000000000E+01 0. -1.
          5    1    5    5  503    0 -0.21104019176E+02 -0.63926294240E+02 -0.27759587284E+02  0.72970099403E+02  0.47000000000E+01 0.  1.
         -5    1    5    5    0  503 -0.12667036370E+02  0.27010966778E+02  0.55236816071E+02  0.62954284893E+02  0.47000000000E+01 0.  1.
<mgrwt>
<rscale>  0 0.27831142E+03</rscale>
<asrwt>0</asrwt>
<pdfrwt beam="1">  1        2 0.30893086E-01 0.27831142E+03</pdfrwt>
<pdfrwt beam="2">  1       -2 0.14835905E-01 0.27831142E+03</pdfrwt>
<totfact> 0.58785556E+03</totfact>
</mgrwt>
</event>
<event>
 9    1  0.2098759E-002  0.2752621E+03  0.7818608E-02  0.1098305E+00
         -2   -1    0    0    0  501 -0.00000000000E+00  0.00000000000E+00  0.87680485902E+01  0.87680485902E+01  0.00000000000E+00 0. -1.
          2   -1    0    0  501    0  0.00000000000E+00 -0.00000000000E+00 -0.21603781023E+04  0.21603781023E+04  0.00000000000E+00 0. -1.
         36    2    1    2    0    0 -0.71054273576E-14  0.00000000000E+00 -0.21516100537E+04  0.21691461509E+04  0.27526205822E+03 0.  0.
         25    2    3    3    0    0 -0.48356694429E+02 -0.18845140964E+02 -0.11025253303E+04  0.11108856867E+04  0.12574337258E+03 0.  0.
         25    2    3    3    0    0  0.48356694429E+02  0.18845140964E+02 -0.10490847234E+04  0.10582604642E+04  0.12900753436E+03 0.  0.
          5    1    4    4  502    0 -0.53302286197E+02  0.45053757129E+02 -0.66448585444E+03  0.66815755290E+03  0.47000000000E+01 0. -1.
         -5    1    4    4    0  502  0.49455917679E+01 -0.63898898094E+02 -0.43803947585E+03  0.44272813380E+03  0.47000000000E+01 0. -1.
          5    1    5    5  503    0 -0.21557271697E+01 -0.64207211926E+01 -0.62229958759E+00  0.82674105402E+01  0.47000000000E+01 0.  1.
         -5    1    5    5    0  503  0.50512421599E+02  0.25265862157E+02 -0.10484624239E+04  0.10499930537E+04  0.47000000000E+01 0.  1.
<mgrwt>
<rscale>  0 0.27526206E+03</rscale>
<asrwt>0</asrwt>
<pdfrwt beam="1">  1        2 0.33236621E+00 0.27526206E+03</pdfrwt>
<pdfrwt beam="2">  1       -2 0.13489291E-02 0.27526206E+03</pdfrwt>
<totfact> 0.84230732E+03</totfact>
</mgrwt>
</event>
<event>
 9    1  0.2098759E-002  0.2746711E+03  0.7818608E-02  0.1098636E+00
          2   -1    0    0  501    0  0.00000000000E+00  0.00000000000E+00  0.22046670100E+02  0.22046670100E+02  0.00000000000E+00 0. -1.
         -2   -1    0    0    0  501 -0.00000000000E+00 -0.00000000000E+00 -0.85550552680E+03  0.85550552680E+03  0.00000000000E+00 0. -1.
         36    2    1    2    0    0  0.71054273576E-14 -0.35527136788E-14 -0.83345885670E+03  0.87755219690E+03  0.27467106231E+03 0.  0.
         25    2    3    3    0    0 -0.13447901159E+02  0.73687585661E+01 -0.24291220621E+03  0.27383616805E+03  0.12547813498E+03 0.  0.
         25    2    3    3    0    0  0.13447901159E+02 -0.73687585661E+01 -0.59054665049E+03  0.60371602885E+03  0.12446908225E+03 0.  0.
          5    1    4    4  502    0 -0.37712041020E+02 -0.24766289650E+02 -0.24228368646E+02  0.51426364718E+02  0.47000000000E+01 0.  1.
         -5    1    4    4    0  502  0.24264139861E+02  0.32135048216E+02 -0.21868383756E+03  0.22240980333E+03  0.47000000000E+01 0.  1.
          5    1    5    5  503    0  0.57544328725E+02 -0.39735085808E+02 -0.35543459550E+03  0.36227899262E+03  0.47000000000E+01 0. -1.
         -5    1    5    5    0  503 -0.44096427565E+02  0.32366327242E+02 -0.23511205498E+03  0.24143703623E+03  0.47000000000E+01 0. -1.
<mgrwt>
<rscale>  0 0.27467106E+03</rscale>
<asrwt>0</asrwt>
<pdfrwt beam="1">  1        2 0.33917954E-02 0.27467106E+03</pdfrwt>
<pdfrwt beam="2">  1       -2 0.13161624E+00 0.27467106E+03</pdfrwt>
<totfact> 0.11716721E+03</totfact>
</mgrwt>
</event>
<event>
 9    1  0.2098759E-002  0.2733145E+03  0.7818608E-02  0.1099397E+00
         -1   -1    0    0    0  501 -0.00000000000E+00  0.00000000000E+00  0.64799107033E+02  0.64799107033E+02  0.00000000000E+00 0. -1.
          1   -1    0    0  501    0  0.00000000000E+00 -0.00000000000E+00 -0.28820160296E+03  0.28820160296E+03  0.00000000000E+00 0. -1.
         36    2    1    2    0    0  0.71054273576E-14 -0.71054273576E-14 -0.22340249593E+03  0.35300071000E+03  0.27331451859E+03 0.  0.
         25    2    3    3    0    0 -0.29419516257E+02  0.22856272072E+02 -0.62328874974E+02  0.14496281064E+03  0.12546477874E+03 0.  0.
         25    2    3    3    0    0  0.29419516257E+02 -0.22856272072E+02 -0.16107362096E+03  0.20803789935E+03  0.12628198244E+03 0.  0.
          5    1    4    4  502    0 -0.57430205107E+02 -0.14077654994E+01  0.14586169018E+02  0.59456341873E+02  0.47000000000E+01 0. -1.
         -5    1    4    4    0  502  0.28010688850E+02  0.24264037571E+02 -0.76915043992E+02  0.85506468769E+02  0.47000000000E+01 0. -1.
          5    1    5    5  503    0  0.13783053281E+01 -0.38642610694E+02 -0.16992635852E+03  0.17433361239E+03  0.47000000000E+01 0. -1.
         -5    1    5    5    0  503  0.28041210929E+02  0.15786338622E+02  0.88527375681E+01  0.33704286966E+02  0.47000000000E+01 0. -1.
<mgrwt>
<rscale>  0 0.27331452E+03</rscale>
<asrwt>0</asrwt>
<pdfrwt beam="1">  1        1 0.44338709E-01 0.27331452E+03</pdfrwt>
<pdfrwt beam="2">  1       -1 0.99690932E-02 0.27331452E+03</pdfrwt>
<totfact> 0.56075858E+03</totfact>
</mgrwt>
</event>
<event>
 9    1  0.2098759E-002  0.2759773E+03  0.7818608E-02  0.1097907E+00
         -1   -1    0    0    0  501 -0.00000000000E+00  0.00000000000E+00  0.32246540494E+02  0.32246540494E+02  0.00000000000E+00 0. -1.
          1   -1    0    0  501    0  0.00000000000E+00 -0.00000000000E+00 -0.59047776822E+03  0.59047776822E+03  0.00000000000E+00 0. -1.
         36    2    1    2    0    0 -0.71054273576E-14  0.00000000000E+00 -0.55823122773E+03  0.62272430872E+03  0.27597728358E+03 0.  0.
         25    2    3    3    0    0  0.49527769282E+02 -0.37409351819E+01 -0.23929394381E+03  0.27467953083E+03  0.12538045535E+03 0.  0.
         25    2    3    3    0    0 -0.49527769282E+02  0.37409351819E+01 -0.31893728392E+03  0.34804477789E+03  0.13018134205E+03 0.  0.
          5    1    4    4  502    0  0.38326165117E+01 -0.60441096858E+02 -0.12665672567E+03  0.14047003701E+03  0.47000000000E+01 0. -1.
         -5    1    4    4    0  502  0.45695152770E+02  0.56700161676E+02 -0.11263721814E+03  0.13420949382E+03  0.47000000000E+01 0. -1.
          5    1    5    5  503    0 -0.11976206242E+02  0.43364263948E+02 -0.27247801530E+03  0.27620689297E+03  0.47000000000E+01 0.  1.
         -5    1    5    5    0  503 -0.37551563040E+02 -0.39623328766E+02 -0.46459268621E+02  0.71837884922E+02  0.47000000000E+01 0.  1.
<mgrwt>
<rscale>  0 0.27597728E+03</rscale>
<asrwt>0</asrwt>
<pdfrwt beam="1">  1        1 0.90842729E-01 0.27597728E+03</pdfrwt>
<pdfrwt beam="2">  1       -1 0.49610065E-02 0.27597728E+03</pdfrwt>
<totfact> 0.63819428E+03</totfact>
</mgrwt>
</event>
<event>
 9    1  0.2098759E-002  0.2770317E+03  0.7818608E-02  0.1097321E+00
         -1   -1    0    0    0  501 -0.00000000000E+00  0.00000000000E+00  0.10030807327E+02  0.10030807327E+02  0.00000000000E+00 0. -1.
          1   -1    0    0  501    0  0.00000000000E+00 -0.00000000000E+00 -0.19127707288E+04  0.19127707288E+04  0.00000000000E+00 0. -1.
         36    2    1    2    0    0 -0.71054273576E-14  0.00000000000E+00 -0.19027399215E+04  0.19228015362E+04  0.27703165625E+03 0.  0.
         25    2    3    3    0    0  0.11986936713E+02  0.17758246827E+02 -0.12824112681E+04  0.12885465976E+04  0.12375229996E+03 0.  0.
         25    2    3    3    0    0 -0.11986936713E+02 -0.17758246827E+02 -0.62032865342E+03  0.63425493854E+03  0.13043253744E+03 0.  0.
          5    1    4    4  502    0 -0.46570075737E+02 -0.84244565030E+01 -0.27482287909E+03  0.27890759813E+03  0.47000000000E+01 0. -1.
         -5    1    4    4    0  502  0.58557012451E+02  0.26182703330E+02 -0.10075883890E+04  0.10096389995E+04  0.47000000000E+01 0. -1.
          5    1    5    5  503    0  0.14738985728E+02 -0.37112507229E+02 -0.58230136680E+03  0.58368788549E+03  0.47000000000E+01 0. -1.
         -5    1    5    5    0  503 -0.26725922441E+02  0.19354260402E+02 -0.38027286616E+02  0.50567053043E+02  0.47000000000E+01 0. -1.
<mgrwt>
<rscale>  0 0.27703166E+03</rscale>
<asrwt>0</asrwt>
<pdfrwt beam="1">  1        1 0.29427256E+00 0.27703166E+03</pdfrwt>
<pdfrwt beam="2">  1       -1 0.15432004E-02 0.27703166E+03</pdfrwt>
<totfact> 0.38492959E+03</totfact>
</mgrwt>
</event>
<event>
 9    1  0.2098759E-002  0.2735311E+03  0.7818608E-02  0.1099275E+00
          2   -1    0    0  501    0  0.00000000000E+00  0.00000000000E+00  0.10375892593E+04  0.10375892593E+04  0.00000000000E+00 0.  1.
         -2   -1    0    0    0  501 -0.00000000000E+00 -0.00000000000E+00 -0.18027190044E+02  0.18027190044E+02  0.00000000000E+00 0.  1.
         36    2    1    2    0    0 -0.71054273576E-14  0.00000000000E+00  0.10195620692E+04  0.10556164493E+04  0.27353112265E+03 0.  0.
         25    2    3    3    0    0  0.38544122883E+02 -0.17914165428E+02  0.40057368851E+03  0.42272310376E+03  0.12817556631E+03 0.  0.
         25    2    3    3    0    0 -0.38544122883E+02  0.17914165428E+02  0.61898838071E+03  0.63289334554E+03  0.12490318109E+03 0.  0.
          5    1    4    4  502    0  0.27254517084E+02 -0.34108684279E+02  0.40001945128E+03  0.40242249247E+03  0.47000000000E+01 0. -1.
         -5    1    4    4    0  502  0.11289605799E+02  0.16194518851E+02  0.55423722794E+00  0.20300611292E+02  0.47000000000E+01 0. -1.
          5    1    5    5  503    0 -0.68767568242E+02 -0.29680460089E+02  0.33108835775E+03  0.33948711137E+03  0.47000000000E+01 0. -1.
         -5    1    5    5    0  503  0.30223445360E+02  0.47594625516E+02  0.28790002296E+03  0.29340623417E+03  0.47000000000E+01 0. -1.
<mgrwt>
<rscale>  0 0.27353112E+03</rscale>
<asrwt>0</asrwt>
<pdfrwt beam="1">  1        2 0.15962907E+00 0.27353112E+03</pdfrwt>
<pdfrwt beam="2">  1       -2 0.27734147E-02 0.27353112E+03</pdfrwt>
<totfact> 0.11828913E+04</totfact>
</mgrwt>
</event>
<event>
 9    1  0.2098759E-002  0.2746275E+03  0.7818608E-02  0.1098660E+00
          2   -1    0    0  501    0  0.00000000000E+00  0.00000000000E+00  0.15919137182E+03  0.15919137182E+03  0.00000000000E+00 0.  1.
         -2   -1    0    0    0  501 -0.00000000000E+00 -0.00000000000E+00 -0.11844275338E+03  0.11844275338E+03  0.00000000000E+00 0.  1.
         36    2    1    2    0    0 -0.35527136788E-14  0.35527136788E-14  0.40748618435E+02  0.27763412520E+03  0.27462748874E+03 0.  0.
         25    2    3    3    0    0  0.29355613748E+02  0.10677450713E+02  0.71591054556E+02  0.14430470602E+03  0.12133758311E+03 0.  0.
         25    2    3    3    0    0 -0.29355613748E+02 -0.10677450713E+02 -0.30842436121E+02  0.13332941917E+03  0.12589566370E+03 0.  0.
          5    1    4    4  502    0  0.66763160567E+01  0.60015909726E+02  0.65896394791E+02  0.89503672901E+02  0.47000000000E+01 0. -1.
         -5    1    4    4    0  502  0.22679297691E+02 -0.49338459012E+02  0.56946597650E+01  0.54801033123E+02  0.47000000000E+01 0. -1.
          5    1    5    5  503    0 -0.11897689956E+02 -0.34679239858E+02 -0.72843966177E+02  0.81685605291E+02  0.47000000000E+01 0. -1.
         -5    1    5    5    0  503 -0.17457923792E+02  0.24001789145E+02  0.42001530055E+02  0.51643813882E+02  0.47000000000E+01 0. -1.
<mgrwt>
<rscale>  0 0.27462749E+03</rscale>
<asrwt>0</asrwt>
<pdfrwt beam="1">  1        2 0.24490980E-01 0.27462749E+03</pdfrwt>
<pdfrwt beam="2">  1       -2 0.18221962E-01 0.27462749E+03</pdfrwt>
<totfact> 0.53906773E+03</totfact>
</mgrwt>
</event>
<event>
 9    1  0.2098759E-002  0.2724272E+03  0.7818608E-02  0.1099898E+00
         -2   -1    0    0    0  501 -0.00000000000E+00  0.00000000000E+00  0.75862588737E+02  0.75862588737E+02  0.00000000000E+00 0. -1.
          2   -1    0    0  501    0  0.00000000000E+00 -0.00000000000E+00 -0.24457569506E+03  0.24457569506E+03  0.00000000000E+00 0. -1.
         36    2    1    2    0    0  0.00000000000E+00  0.88817841970E-15 -0.16871310632E+03  0.32043828379E+03  0.27242720400E+03 0.  0.
         25    2    3    3    0    0 -0.17087177690E+02 -0.66264436341E+01 -0.14386552787E+03  0.19076135782E+03  0.12392225034E+03 0.  0.
         25    2    3    3    0    0  0.17087177690E+02  0.66264436341E+01 -0.24847578444E+02  0.12967692598E+03  0.12594769382E+03 0.  0.
          5    1    4    4  502    0 -0.67762983224E+02  0.49270583585E+00 -0.52177400935E+02  0.85654164071E+02  0.47000000000E+01 0.  1.
         -5    1    4    4    0  502  0.50675805534E+02 -0.71191494699E+01 -0.91688126940E+02  0.10510719375E+03  0.47000000000E+01 0.  1.
          5    1    5    5  503    0  0.53308464090E+02  0.25818570234E+02  0.25434801525E+02  0.64632886685E+02  0.47000000000E+01 0.  1.
         -5    1    5    5    0  503 -0.36221286400E+02 -0.19192126600E+02 -0.50282379969E+02  0.65044039291E+02  0.47000000000E+01 0.  1.
<mgrwt>
<rscale>  0 0.27242720E+03</rscale>
<asrwt>0</asrwt>
<pdfrwt beam="1">  1        2 0.37627030E-01 0.27242720E+03</pdfrwt>
<pdfrwt beam="2">  1       -2 0.11671167E-01 0.27242720E+03</pdfrwt>
<totfact> 0.70080156E+03</totfact>
</mgrwt>
</event>
<event>
 9    1  0.2098759E-002  0.2753078E+03  0.7818608E-02  0.1098280E+00
         -1   -1    0    0    0  501 -0.00000000000E+00  0.00000000000E+00  0.20078806618E+02  0.20078806618E+02  0.00000000000E+00 0. -1.
          1   -1    0    0  501    0  0.00000000000E+00 -0.00000000000E+00 -0.94371138995E+03  0.94371138995E+03  0.00000000000E+00 0. -1.
         36    2    1    2    0    0 -0.35527136788E-14  0.00000000000E+00 -0.92363258333E+03  0.96379019657E+03  0.27530781683E+03 0.  0.
         25    2    3    3    0    0 -0.21886347361E+02  0.40660851084E+02 -0.57684165059E+03  0.59175868405E+03  0.12369209063E+03 0.  0.
         25    2    3    3    0    0  0.21886347361E+02 -0.40660851084E+02 -0.34679093274E+03  0.37203151252E+03  0.12653528465E+03 0.  0.
          5    1    4    4  502    0  0.14222348525E+01 -0.41200236665E+02 -0.27493477599E+03  0.27804802338E+03  0.47000000000E+01 0. -1.
         -5    1    4    4    0  502 -0.23308582214E+02  0.81861087749E+02 -0.30190687460E+03  0.31371066067E+03  0.47000000000E+01 0. -1.
          5    1    5    5  503    0 -0.15055456385E+02 -0.12388275919E+02 -0.31466230577E+03  0.31530079736E+03  0.47000000000E+01 0. -1.
         -5    1    5    5    0  503  0.36941803746E+02 -0.28272575165E+02 -0.32128626974E+02  0.56730715152E+02  0.47000000000E+01 0. -1.
<mgrwt>
<rscale>  0 0.27530782E+03</rscale>
<asrwt>0</asrwt>
<pdfrwt beam="1">  1        1 0.14518636E+00 0.27530782E+03</pdfrwt>
<pdfrwt beam="2">  1       -1 0.30890474E-02 0.27530782E+03</pdfrwt>
<totfact> 0.63702104E+03</totfact>
</mgrwt>
</event>
<event>
 9    1  0.2098759E-002  0.2753980E+03  0.7818608E-02  0.1098229E+00
          2   -1    0    0  501    0  0.00000000000E+00  0.00000000000E+00  0.56112595464E+03  0.56112595464E+03  0.00000000000E+00 0.  1.
         -2   -1    0    0    0  501 -0.00000000000E+00 -0.00000000000E+00 -0.33791019305E+02  0.33791019305E+02  0.00000000000E+00 0.  1.
         36    2    1    2    0    0 -0.71054273576E-14 -0.17763568394E-14  0.52733493533E+03  0.59491697394E+03  0.27539802443E+03 0.  0.
         25    2    3    3    0    0  0.50526974482E+02  0.26776275129E+01  0.20017367054E+03  0.24088935078E+03  0.12408882345E+03 0.  0.
         25    2    3    3    0    0 -0.50526974482E+02 -0.26776275129E+01  0.32716126480E+03  0.35402762316E+03  0.12546282293E+03 0.  0.
          5    1    4    4  502    0  0.86662922634E+01 -0.30613035434E+02  0.18106594614E+03  0.18390005278E+03  0.47000000000E+01 0.  1.
         -5    1    4    4    0  502  0.41860682219E+02  0.33290662947E+02  0.19107724397E+02  0.56989298003E+02  0.47000000000E+01 0.  1.
          5    1    5    5  503    0  0.29328369218E+02 -0.12941784943E+02  0.23995005735E+02  0.40317407391E+02  0.47000000000E+01 0. -1.
         -5    1    5    5    0  503 -0.79855343701E+02  0.10264157430E+02  0.30316625906E+03  0.31371021577E+03  0.47000000000E+01 0. -1.
<mgrwt>
<rscale>  0 0.27539802E+03</rscale>
<asrwt>0</asrwt>
<pdfrwt beam="1">  1        2 0.86327063E-01 0.27539802E+03</pdfrwt>
<pdfrwt beam="2">  1       -2 0.51986188E-02 0.27539802E+03</pdfrwt>
<totfact> 0.10013372E+04</totfact>
</mgrwt>
</event>
<event>
 9    1  0.2098759E-002  0.2743221E+03  0.7818608E-02  0.1098831E+00
         -2   -1    0    0    0  501 -0.00000000000E+00  0.00000000000E+00  0.59200978458E+02  0.59200978458E+02  0.00000000000E+00 0.  1.
          2   -1    0    0  501    0  0.00000000000E+00 -0.00000000000E+00 -0.31778448038E+03  0.31778448038E+03  0.00000000000E+00 0.  1.
         36    2    1    2    0    0  0.71054273576E-14  0.00000000000E+00 -0.25858350192E+03  0.37698545883E+03  0.27432208935E+03 0.  0.
         25    2    3    3    0    0  0.44964294122E+02  0.15493251505E+02 -0.87943570206E+02  0.16119439629E+03  0.12644260859E+03 0.  0.
         25    2    3    3    0    0 -0.44964294122E+02 -0.15493251505E+02 -0.17063993171E+03  0.21579106254E+03  0.12323135880E+03 0.  0.
          5    1    4    4  502    0 -0.39468270509E+02  0.28666891558E+02 -0.25432385069E+02  0.55212600544E+02  0.47000000000E+01 0.  1.
         -5    1    4    4    0  502  0.84432564631E+02 -0.13173640053E+02 -0.62511185137E+02  0.10598179575E+03  0.47000000000E+01 0.  1.
          5    1    5    5  503    0 -0.81127252854E+02 -0.10254506983E+02 -0.15590644415E+03  0.17611273490E+03  0.47000000000E+01 0. -1.
         -5    1    5    5    0  503  0.36162958732E+02 -0.52387445224E+01 -0.14733487566E+02  0.39678327640E+02  0.47000000000E+01 0. -1.
<mgrwt>
<rscale>  0 0.27432209E+03</rscale>
<asrwt>0</asrwt>
<pdfrwt beam="1">  1        2 0.48889920E-01 0.27432209E+03</pdfrwt>
<pdfrwt beam="2">  1       -2 0.91078428E-02 0.27432209E+03</pdfrwt>
<totfact> 0.78501740E+03</totfact>
</mgrwt>
</event>
<event>
 9    1  0.2098759E-002  0.2756665E+03  0.7818608E-02  0.1098080E+00
         -2   -1    0    0    0  501 -0.00000000000E+00  0.00000000000E+00  0.10845152954E+04  0.10845152954E+04  0.00000000000E+00 0. -1.
          2   -1    0    0  501    0  0.00000000000E+00 -0.00000000000E+00 -0.17517513532E+02  0.17517513532E+02  0.00000000000E+00 0. -1.
         36    2    1    2    0    0  0.00000000000E+00 -0.71054273576E-14  0.10669977818E+04  0.11020328089E+04  0.27566654757E+03 0.  0.
         25    2    3    3    0    0  0.27258410897E+02 -0.17857281788E+02  0.67290680595E+03  0.68661342660E+03  0.13256139941E+03 0.  0.
         25    2    3    3    0    0 -0.27258410897E+02  0.17857281788E+02  0.39409097587E+03  0.41541938229E+03  0.12729360722E+03 0.  0.
          5    1    4    4  502    0  0.25077382181E+02  0.55552021884E+02  0.25103505090E+03  0.25837102974E+03  0.47000000000E+01 0. -1.
         -5    1    4    4    0  502  0.21810287164E+01 -0.73409303672E+02  0.42187175505E+03  0.42824239685E+03  0.47000000000E+01 0. -1.
          5    1    5    5  503    0  0.50535064455E+02  0.16702604377E+02  0.16417087075E+03  0.17264684919E+03  0.47000000000E+01 0. -1.
         -5    1    5    5    0  503 -0.77793475353E+02  0.11546774109E+01  0.22992010512E+03  0.24277253310E+03  0.47000000000E+01 0. -1.
<mgrwt>
<rscale>  0 0.27566655E+03</rscale>
<asrwt>0</asrwt>
<pdfrwt beam="1">  1        2 0.26950029E-02 0.27566655E+03</pdfrwt>
<pdfrwt beam="2">  1       -2 0.16684845E+00 0.27566655E+03</pdfrwt>
<totfact> 0.86897482E+02</totfact>
</mgrwt>
</event>
<event>
 9    1  0.2098759E-002  0.2753676E+03  0.7818608E-02  0.1098246E+00
         -2   -1    0    0    0  501 -0.00000000000E+00  0.00000000000E+00  0.77442856201E+01  0.77442856201E+01  0.00000000000E+00 0. -1.
          2   -1    0    0  501    0  0.00000000000E+00 -0.00000000000E+00 -0.24478473175E+04  0.24478473175E+04  0.00000000000E+00 0. -1.
         36    2    1    2    0    0  0.00000000000E+00  0.00000000000E+00 -0.24401030318E+04  0.24555916031E+04  0.27536759999E+03 0.  0.
         25    2    3    3    0    0 -0.23194352437E+02 -0.51282034869E+02 -0.14100310994E+04  0.14163993064E+04  0.12178451759E+03 0.  0.
         25    2    3    3    0    0  0.23194352437E+02  0.51282034869E+02 -0.10300719324E+04  0.10391922967E+04  0.12531806915E+03 0.  0.
          5    1    4    4  502    0 -0.55023354924E+02 -0.51936831044E+02 -0.12869450703E+04  0.12891759802E+04  0.47000000000E+01 0.  1.
         -5    1    4    4    0  502  0.31829002487E+02  0.65479617498E+00 -0.12308602914E+03  0.12722332619E+03  0.47000000000E+01 0.  1.
          5    1    5    5  503    0  0.12488210428E+02 -0.75560954757E+01 -0.83417950246E+03  0.83432043143E+03  0.47000000000E+01 0. -1.
         -5    1    5    5    0  503  0.10706142010E+02  0.58838130345E+02 -0.19589242995E+03  0.20487186525E+03  0.47000000000E+01 0. -1.
<mgrwt>
<rscale>  0 0.27536760E+03</rscale>
<asrwt>0</asrwt>
<pdfrwt beam="1">  1        2 0.37659231E+00 0.27536760E+03</pdfrwt>
<pdfrwt beam="2">  1       -2 0.11914272E-02 0.27536760E+03</pdfrwt>
<totfact> 0.70754379E+03</totfact>
</mgrwt>
</event>
<event>
 9    1  0.2098759E-002  0.2756336E+03  0.7818608E-02  0.1098098E+00
         -1   -1    0    0    0  501 -0.00000000000E+00  0.00000000000E+00  0.15873455164E+02  0.15873455164E+02  0.00000000000E+00 0. -1.
          1   -1    0    0  501    0  0.00000000000E+00 -0.00000000000E+00 -0.11965554805E+04  0.11965554805E+04  0.00000000000E+00 0. -1.
         36    2    1    2    0    0 -0.71054273576E-14  0.71054273576E-14 -0.11806820254E+04  0.12124289357E+04  0.27563359572E+03 0.  0.
         25    2    3    3    0    0 -0.30197582398E+02  0.53551421785E+02 -0.75407857307E+03  0.76669384118E+03  0.12411810094E+03 0.  0.
         25    2    3    3    0    0  0.30197582398E+02 -0.53551421785E+02 -0.42660345231E+03  0.44573509453E+03  0.11362050966E+03 0.  0.
          5    1    4    4  502    0 -0.20755986022E+02  0.84522479675E+02 -0.32872814974E+03  0.34008696969E+03  0.47000000000E+01 0. -1.
         -5    1    4    4    0  502 -0.94415963765E+01 -0.30971057890E+02 -0.42535042333E+03  0.42660687148E+03  0.47000000000E+01 0. -1.
          5    1    5    5  503    0  0.45019805609E+02 -0.47557248551E+02 -0.10591284920E+03  0.12461178280E+03  0.47000000000E+01 0.  1.
         -5    1    5    5    0  503 -0.14822223211E+02 -0.59941732343E+01 -0.32069060311E+03  0.32112331173E+03  0.47000000000E+01 0.  1.
<mgrwt>
<rscale>  0 0.27563360E+03</rscale>
<asrwt>0</asrwt>
<pdfrwt beam="1">  1        1 0.18408546E+00 0.27563360E+03</pdfrwt>
<pdfrwt beam="2">  1       -1 0.24420700E-02 0.27563360E+03</pdfrwt>
<totfact> 0.58855931E+03</totfact>
</mgrwt>
</event>
<event>
 9    1  0.2098759E-002  0.2754878E+03  0.7818608E-02  0.1098179E+00
          2   -1    0    0  501    0  0.00000000000E+00  0.00000000000E+00  0.62445162644E+03  0.62445162644E+03  0.00000000000E+00 0.  1.
         -2   -1    0    0    0  501 -0.00000000000E+00 -0.00000000000E+00 -0.30384078584E+02  0.30384078584E+02  0.00000000000E+00 0.  1.
         36    2    1    2    0    0  0.00000000000E+00  0.35527136788E-14  0.59406754786E+03  0.65483570503E+03  0.27548783850E+03 0.  0.
         25    2    3    3    0    0 -0.47604413826E+02  0.20405446714E+02  0.35680721415E+03  0.38174181941E+03  0.12543072248E+03 0.  0.
         25    2    3    3    0    0  0.47604413826E+02 -0.20405446714E+02  0.23726033370E+03  0.27309388562E+03  0.12492094277E+03 0.  0.
          5    1    4    4  502    0  0.34360374907E+02  0.94596103640E+01  0.21110145219E+03  0.21414021740E+03  0.47000000000E+01 0. -1.
         -5    1    4    4    0  502 -0.81964788733E+02  0.10945836350E+02  0.14570576197E+03  0.16760160201E+03  0.47000000000E+01 0. -1.
          5    1    5    5  503    0  0.33742575820E+02  0.50328439769E+02  0.84165981991E+02  0.10381481492E+03  0.47000000000E+01 0. -1.
         -5    1    5    5    0  503  0.13861838006E+02 -0.70733886484E+02  0.15309435171E+03  0.16927907070E+03  0.47000000000E+01 0. -1.
<mgrwt>
<rscale>  0 0.27548784E+03</rscale>
<asrwt>0</asrwt>
<pdfrwt beam="1">  1        2 0.96069472E-01 0.27548784E+03</pdfrwt>
<pdfrwt beam="2">  1       -2 0.46744741E-02 0.27548784E+03</pdfrwt>
<totfact> 0.10396906E+04</totfact>
</mgrwt>
</event>
<event>
 9    1  0.2098759E-002  0.2764247E+03  0.7818608E-02  0.1097658E+00
         -2   -1    0    0    0  501 -0.00000000000E+00  0.00000000000E+00  0.41689050858E+02  0.41689050858E+02  0.00000000000E+00 0.  1.
          2   -1    0    0  501    0  0.00000000000E+00 -0.00000000000E+00 -0.45821736535E+03  0.45821736535E+03  0.00000000000E+00 0.  1.
         36    2    1    2    0    0  0.00000000000E+00  0.00000000000E+00 -0.41652831450E+03  0.49990641621E+03  0.27642465193E+03 0.  0.
         25    2    3    3    0    0  0.45374640440E+02 -0.24264591275E+02 -0.18411609642E+03  0.22992566803E+03  0.12774759283E+03 0.  0.
         25    2    3    3    0    0 -0.45374640440E+02  0.24264591275E+02 -0.23241221808E+03  0.26998074818E+03  0.12738342471E+03 0.  0.
          5    1    4    4  502    0 -0.34786883826E+02 -0.24938512757E+02 -0.20553030615E+02  0.47713454835E+02  0.47000000000E+01 0.  1.
         -5    1    4    4    0  502  0.80161524265E+02  0.67392148195E+00 -0.16356306580E+03  0.18221221320E+03  0.47000000000E+01 0.  1.
          5    1    5    5  503    0 -0.73140891336E+02 -0.62510603038E+01 -0.67207392176E+02  0.99637288720E+02  0.47000000000E+01 0.  1.
         -5    1    5    5    0  503  0.27766250896E+02  0.30515651579E+02 -0.16520482590E+03  0.17034345946E+03  0.47000000000E+01 0.  1.
<mgrwt>
<rscale>  0 0.27642465E+03</rscale>
<asrwt>0</asrwt>
<pdfrwt beam="1">  1        2 0.70494979E-01 0.27642465E+03</pdfrwt>
<pdfrwt beam="2">  1       -2 0.64137001E-02 0.27642465E+03</pdfrwt>
<totfact> 0.91141437E+03</totfact>
</mgrwt>
</event>
<event>
 9    1  0.2098759E-002  0.2751274E+03  0.7818608E-02  0.1098380E+00
         -3   -1    0    0    0  501 -0.00000000000E+00  0.00000000000E+00  0.29684953455E+03  0.29684953455E+03  0.00000000000E+00 0. -1.
          3   -1    0    0  501    0  0.00000000000E+00 -0.00000000000E+00 -0.63748683150E+02  0.63748683150E+02  0.00000000000E+00 0. -1.
         36    2    1    2    0    0  0.35527136788E-14  0.00000000000E+00  0.23310085140E+03  0.36059821770E+03  0.27512736630E+03 0.  0.
         25    2    3    3    0    0 -0.12460004029E+02 -0.45765219663E+02  0.13714414024E+03  0.19310109692E+03  0.12739627702E+03 0.  0.
         25    2    3    3    0    0  0.12460004029E+02  0.45765219663E+02  0.95956711160E+02  0.16749712078E+03  0.12883279094E+03 0.  0.
          5    1    4    4  502    0 -0.36968981229E+02  0.19356983005E+02  0.32331306778E+01  0.42118184886E+02  0.47000000000E+01 0.  1.
         -5    1    4    4    0  502  0.24508977200E+02 -0.65122202668E+02  0.13391100957E+03  0.15098291203E+03  0.47000000000E+01 0.  1.
          5    1    5    5  503    0 -0.17235293200E+02 -0.40308615145E+02  0.18310723209E+02  0.47741097296E+02  0.47000000000E+01 0.  1.
         -5    1    5    5    0  503  0.29695297229E+02  0.86073834808E+02  0.77645987950E+02  0.11975602348E+03  0.47000000000E+01 0.  1.
<mgrwt>
<rscale>  0 0.27512737E+03</rscale>
<asrwt>0</asrwt>
<pdfrwt beam="1">  1        3 0.98074899E-02 0.27512737E+03</pdfrwt>
<pdfrwt beam="2">  1       -3 0.45669158E-01 0.27512737E+03</pdfrwt>
<totfact> 0.92764619E+02</totfact>
</mgrwt>
</event>
<event>
 9    1  0.2098759E-002  0.2815406E+03  0.7818608E-02  0.1094850E+00
          2   -1    0    0  501    0  0.00000000000E+00  0.00000000000E+00  0.16726121583E+04  0.16726121583E+04  0.00000000000E+00 0.  1.
         -2   -1    0    0    0  501 -0.00000000000E+00 -0.00000000000E+00 -0.11847501615E+02  0.11847501615E+02  0.00000000000E+00 0.  1.
         36    2    1    2    0    0  0.00000000000E+00  0.71054273576E-14  0.16607646567E+04  0.16844596600E+04  0.28154058498E+03 0.  0.
         25    2    3    3    0    0 -0.28978096022E+02  0.54074714702E+02  0.64158654435E+03  0.65607821683E+03  0.12264390683E+03 0.  0.
         25    2    3    3    0    0  0.28978096022E+02 -0.54074714702E+02  0.10191781124E+04  0.10283814431E+04  0.12280294383E+03 0.  0.
          5    1    4    4  502    0 -0.53512208659E+02  0.66805470667E+02  0.59892227919E+03  0.60502604398E+03  0.47000000000E+01 0. -1.
         -5    1    4    4    0  502  0.24534112637E+02 -0.12730755965E+02  0.42664265160E+02  0.51052172843E+02  0.47000000000E+01 0. -1.
          5    1    5    5  503    0 -0.98882431949E+01 -0.83526526856E+02  0.51687119063E+03  0.52369110718E+03  0.47000000000E+01 0. -1.
         -5    1    5    5    0  503  0.38866339217E+02  0.29451812154E+02  0.50230692175E+03  0.50469033595E+03  0.47000000000E+01 0. -1.
<mgrwt>
<rscale>  0 0.28154058E+03</rscale>
<asrwt>0</asrwt>
<pdfrwt beam="1">  1        2 0.25732476E+00 0.28154058E+03</pdfrwt>
<pdfrwt beam="2">  1       -2 0.18226939E-02 0.28154058E+03</pdfrwt>
<totfact> 0.97941472E+03</totfact>
</mgrwt>
</event>
<event>
 9    1  0.2098759E-002  0.2748413E+03  0.7818608E-02  0.1098540E+00
         -2   -1    0    0    0  501 -0.00000000000E+00  0.00000000000E+00  0.13681495876E+03  0.13681495876E+03  0.00000000000E+00 0. -1.
          2   -1    0    0  501    0  0.00000000000E+00 -0.00000000000E+00 -0.13802902248E+03  0.13802902248E+03  0.00000000000E+00 0. -1.
         36    2    1    2    0    0  0.71054273576E-14 -0.71054273576E-14 -0.12140637129E+01  0.27484398124E+03  0.27484129980E+03 0.  0.
         25    2    3    3    0    0 -0.34061802191E+02  0.48941266495E+02  0.17487136197E+02  0.13609705382E+03  0.12108325314E+03 0.  0.
         25    2    3    3    0    0  0.34061802191E+02 -0.48941266495E+02 -0.18701199909E+02  0.13874692742E+03  0.12387704007E+03 0.  0.
          5    1    4    4  502    0 -0.60201910907E+02  0.36873082975E+02 -0.32780298912E+02  0.77977768125E+02  0.47000000000E+01 0.  1.
         -5    1    4    4    0  502  0.26140108716E+02  0.12068183520E+02  0.50267435109E+02  0.58119285694E+02  0.47000000000E+01 0.  1.
          5    1    5    5  503    0  0.59267641373E+02  0.95336286681E+01  0.20755218251E+02  0.63689971535E+02  0.47000000000E+01 0. -1.
         -5    1    5    5    0  503 -0.25205839182E+02 -0.58474895163E+02 -0.39456418160E+02  0.75056955888E+02  0.47000000000E+01 0. -1.
<mgrwt>
<rscale>  0 0.27484130E+03</rscale>
<asrwt>0</asrwt>
<pdfrwt beam="1">  1        2 0.21235234E-01 0.27484130E+03</pdfrwt>
<pdfrwt beam="2">  1       -2 0.21048455E-01 0.27484130E+03</pdfrwt>
<totfact> 0.49513849E+03</totfact>
</mgrwt>
</event>
<event>
 9    1  0.2098759E-002  0.2718283E+03  0.7818608E-02  0.1100238E+00
          2   -1    0    0  501    0  0.00000000000E+00  0.00000000000E+00  0.43255190341E+03  0.43255190341E+03  0.00000000000E+00 0.  1.
         -2   -1    0    0    0  501 -0.00000000000E+00 -0.00000000000E+00 -0.42706226349E+02  0.42706226349E+02  0.00000000000E+00 0.  1.
         36    2    1    2    0    0  0.71054273576E-14  0.00000000000E+00  0.38984567706E+03  0.47525812976E+03  0.27182832446E+03 0.  0.
         25    2    3    3    0    0 -0.23848463771E+02  0.54166913482E+02  0.16903761327E+03  0.21839998838E+03  0.12498814537E+03 0.  0.
         25    2    3    3    0    0  0.23848463771E+02 -0.54166913482E+02  0.22080806379E+03  0.25685814138E+03  0.11712002398E+03 0.  0.
          5    1    4    4  502    0 -0.49099438371E+01 -0.10265769422E+01 -0.19661583616E+02  0.20828568818E+02  0.47000000000E+01 0. -1.
         -5    1    4    4    0  502 -0.18938519933E+02  0.55193490425E+02  0.18869919689E+03  0.19757141956E+03  0.47000000000E+01 0. -1.
          5    1    5    5  503    0  0.27068325734E+02  0.29248622324E+02  0.11625201542E+03  0.12298291449E+03  0.47000000000E+01 0. -1.
         -5    1    5    5    0  503 -0.32198619633E+01 -0.83415535806E+02  0.10455604837E+03  0.13387522689E+03  0.47000000000E+01 0. -1.
<mgrwt>
<rscale>  0 0.27182832E+03</rscale>
<asrwt>0</asrwt>
<pdfrwt beam="1">  1        2 0.66546444E-01 0.27182832E+03</pdfrwt>
<pdfrwt beam="2">  1       -2 0.65701890E-02 0.27182832E+03</pdfrwt>
<totfact> 0.93502019E+03</totfact>
</mgrwt>
</event>
<event>
 9    1  0.2098759E-002  0.2730123E+03  0.7818608E-02  0.1099568E+00
          2   -1    0    0  501    0  0.00000000000E+00  0.00000000000E+00  0.15857631281E+04  0.15857631281E+04  0.00000000000E+00 0. -1.
         -2   -1    0    0    0  501 -0.00000000000E+00 -0.00000000000E+00 -0.11750764742E+02  0.11750764742E+02  0.00000000000E+00 0. -1.
         36    2    1    2    0    0  0.00000000000E+00  0.17763568394E-14  0.15740123634E+04  0.15975138928E+04  0.27301230342E+03 0.  0.
         25    2    3    3    0    0 -0.58647597248E+02 -0.13092872580E+02  0.69099384146E+03  0.70474120534E+03  0.12480670492E+03 0.  0.
         25    2    3    3    0    0  0.58647597248E+02  0.13092872580E+02  0.88301852189E+03  0.89277268749E+03  0.11709140686E+03 0.  0.
          5    1    4    4  502    0 -0.95832452671E+02 -0.16554142034E+02  0.41952448861E+03  0.43067480208E+03  0.47000000000E+01 0.  1.
         -5    1    4    4    0  502  0.37184855423E+02  0.34612694539E+01  0.27146935286E+03  0.27406640326E+03  0.47000000000E+01 0.  1.
          5    1    5    5  503    0  0.30592126134E+02  0.25894885920E+02  0.84464780470E+02  0.93609894980E+02  0.47000000000E+01 0.  1.
         -5    1    5    5    0  503  0.28055471115E+02 -0.12802013339E+02  0.79855374142E+03  0.79916279251E+03  0.47000000000E+01 0.  1.
<mgrwt>
<rscale>  0 0.27301230E+03</rscale>
<asrwt>0</asrwt>
<pdfrwt beam="1">  1        2 0.24396339E+00 0.27301230E+03</pdfrwt>
<pdfrwt beam="2">  1       -2 0.18078112E-02 0.27301230E+03</pdfrwt>
<totfact> 0.11013066E+04</totfact>
</mgrwt>
</event>
<event>
 9    1  0.2098759E-002  0.2749531E+03  0.7818608E-02  0.1098478E+00
         -2   -1    0    0    0  501 -0.00000000000E+00  0.00000000000E+00  0.15918603239E+02  0.15918603239E+02  0.00000000000E+00 0.  1.
          2   -1    0    0  501    0  0.00000000000E+00 -0.00000000000E+00 -0.11872775387E+04  0.11872775387E+04  0.00000000000E+00 0.  1.
         36    2    1    2    0    0  0.35527136788E-14 -0.35527136788E-14 -0.11713589355E+04  0.12031961420E+04  0.27495308744E+03 0.  0.
         25    2    3    3    0    0 -0.31993347404E+02  0.19224902683E+02 -0.48275962681E+03  0.50006502064E+03  0.12495997928E+03 0.  0.
         25    2    3    3    0    0  0.31993347404E+02 -0.19224902683E+02 -0.68859930867E+03  0.70313112132E+03  0.13722680027E+03 0.  0.
          5    1    4    4  502    0 -0.87886454341E+01  0.42638364394E+02 -0.45388248474E+03  0.45598977002E+03  0.47000000000E+01 0. -1.
         -5    1    4    4    0  502 -0.23204701970E+02 -0.23413461711E+02 -0.28877142072E+02  0.44075250618E+02  0.47000000000E+01 0. -1.
          5    1    5    5  503    0 -0.81358220133E+01  0.56011866309E+02 -0.26945597873E+03  0.27537635199E+03  0.47000000000E+01 0. -1.
         -5    1    5    5    0  503  0.40129169417E+02 -0.75236768992E+02 -0.41914332994E+03  0.42775476932E+03  0.47000000000E+01 0. -1.
<mgrwt>
<rscale>  0 0.27495309E+03</rscale>
<asrwt>0</asrwt>
<pdfrwt beam="1">  1        2 0.18265812E+00 0.27495309E+03</pdfrwt>
<pdfrwt beam="2">  1       -2 0.24490153E-02 0.27495309E+03</pdfrwt>
<totfact> 0.11626688E+04</totfact>
</mgrwt>
</event>
<event>
 9    1  0.2098759E-002  0.2763910E+03  0.7818608E-02  0.1097677E+00
          2   -1    0    0  501    0  0.00000000000E+00  0.00000000000E+00  0.19705150555E+04  0.19705150555E+04  0.00000000000E+00 0.  1.
         -2   -1    0    0    0  501 -0.00000000000E+00 -0.00000000000E+00 -0.96918771109E+01  0.96918771109E+01  0.00000000000E+00 0.  1.
         36    2    1    2    0    0 -0.71054273576E-14  0.00000000000E+00  0.19608231784E+04  0.19802069326E+04  0.27639095328E+03 0.  0.
         25    2    3    3    0    0 -0.47668831335E+02  0.29388203719E+02  0.12276286154E+04  0.12346535410E+04  0.11900153359E+03 0.  0.
         25    2    3    3    0    0  0.47668831335E+02 -0.29388203719E+02  0.73319456299E+03  0.74555339160E+03  0.12304311652E+03 0.  0.
          5    1    4    4  502    0 -0.36828875593E+02  0.53335543080E+02  0.31496050615E+03  0.32159486418E+03  0.47000000000E+01 0. -1.
         -5    1    4    4    0  502 -0.10839955742E+02 -0.23947339361E+02  0.91266810928E+03  0.91305867686E+03  0.47000000000E+01 0. -1.
          5    1    5    5  503    0 -0.41665460448E+02 -0.36309091098E+01  0.23216135192E+03  0.23594528481E+03  0.47000000000E+01 0. -1.
         -5    1    5    5    0  503  0.89334291783E+02 -0.25757294609E+02  0.50103321107E+03  0.50960810679E+03  0.47000000000E+01 0. -1.
<mgrwt>
<rscale>  0 0.27639095E+03</rscale>
<asrwt>0</asrwt>
<pdfrwt beam="1">  1        2 0.30315584E+00 0.27639095E+03</pdfrwt>
<pdfrwt beam="2">  1       -2 0.14910596E-02 0.27639095E+03</pdfrwt>
<totfact> 0.91645429E+03</totfact>
</mgrwt>
</event>
<event>
 9    1  0.2098759E-002  0.2751095E+03  0.7818608E-02  0.1098390E+00
         -2   -1    0    0    0  501 -0.00000000000E+00  0.00000000000E+00  0.15466858960E+03  0.15466858960E+03  0.00000000000E+00 0. -1.
          2   -1    0    0  501    0  0.00000000000E+00 -0.00000000000E+00 -0.12233454322E+03  0.12233454322E+03  0.00000000000E+00 0. -1.
         36    2    1    2    0    0  0.71054273576E-14  0.00000000000E+00  0.32334046387E+02  0.27700313282E+03  0.27510951462E+03 0.  0.
         25    2    3    3    0    0 -0.81887768467E+01  0.41580479415E+02 -0.23057112807E+02  0.13491924065E+03  0.12599832821E+03 0.  0.
         25    2    3    3    0    0  0.81887768467E+01 -0.41580479415E+02  0.55391159194E+02  0.14208389217E+03  0.12378876993E+03 0.  0.
          5    1    4    4  502    0  0.10626391031E+02  0.17398438818E+02 -0.73110257484E+02  0.76044892064E+02  0.47000000000E+01 0. -1.
         -5    1    4    4    0  502 -0.18815167878E+02  0.24182040597E+02  0.50053144676E+02  0.58874348588E+02  0.47000000000E+01 0. -1.
          5    1    5    5  503    0  0.49439455354E+02  0.21497026867E+02  0.32724991508E+02  0.63240785724E+02  0.47000000000E+01 0. -1.
         -5    1    5    5    0  503 -0.41250678507E+02 -0.63077506282E+02  0.22666167687E+02  0.78843106444E+02  0.47000000000E+01 0. -1.
<mgrwt>
<rscale>  0 0.27510951E+03</rscale>
<asrwt>0</asrwt>
<pdfrwt beam="1">  1        2 0.18820699E-01 0.27510951E+03</pdfrwt>
<pdfrwt beam="2">  1       -2 0.23795168E-01 0.27510951E+03</pdfrwt>
<totfact> 0.45946726E+03</totfact>
</mgrwt>
</event>
<event>
 9    1  0.2098759E-002  0.2754994E+03  0.7818608E-02  0.1098173E+00
         -1   -1    0    0    0  501 -0.00000000000E+00  0.00000000000E+00  0.74938041642E+03  0.74938041642E+03  0.00000000000E+00 0. -1.
          1   -1    0    0  501    0  0.00000000000E+00 -0.00000000000E+00 -0.25320883730E+02  0.25320883730E+02  0.00000000000E+00 0. -1.
         36    2    1    2    0    0  0.14210854715E-13  0.88817841970E-15  0.72405953269E+03  0.77470130015E+03  0.27549936039E+03 0.  0.
         25    2    3    3    0    0 -0.57653945666E+02  0.73665404931E+01  0.39019724245E+03  0.41286738619E+03  0.12176759503E+03 0.  0.
         25    2    3    3    0    0  0.57653945666E+02 -0.73665404931E+01  0.33386229024E+03  0.36183391396E+03  0.12681289001E+03 0.  0.
          5    1    4    4  502    0  0.84244685640E+01  0.10648566468E+02 -0.25206220688E+01  0.14587911914E+02  0.47000000000E+01 0.  1.
         -5    1    4    4    0  502 -0.66078414230E+02 -0.32820259745E+01  0.39271786452E+03  0.39827947428E+03  0.47000000000E+01 0.  1.
          5    1    5    5  503    0  0.97249450261E+02  0.22938474780E+00  0.20959345905E+03  0.23110390795E+03  0.47000000000E+01 0.  1.
         -5    1    5    5    0  503 -0.39595504595E+02 -0.75959252409E+01  0.12426883119E+03  0.13073000600E+03  0.47000000000E+01 0.  1.
<mgrwt>
<rscale>  0 0.27549936E+03</rscale>
<asrwt>0</asrwt>
<pdfrwt beam="1">  1        1 0.38955211E-02 0.27549936E+03</pdfrwt>
<pdfrwt beam="2">  1       -1 0.11528928E+00 0.27549936E+03</pdfrwt>
<totfact> 0.17149581E+03</totfact>
</mgrwt>
</event>
<event>
 9    1  0.2098759E-002  0.2752105E+03  0.7818608E-02  0.1098334E+00
         -1   -1    0    0    0  501 -0.00000000000E+00  0.00000000000E+00  0.36503682562E+03  0.36503682562E+03  0.00000000000E+00 0. -1.
          1   -1    0    0  501    0  0.00000000000E+00 -0.00000000000E+00 -0.51872022283E+02  0.51872022283E+02  0.00000000000E+00 0. -1.
         36    2    1    2    0    0  0.00000000000E+00  0.00000000000E+00  0.31316480334E+03  0.41690884790E+03  0.27521045294E+03 0.  0.
         25    2    3    3    0    0  0.27757470025E+02  0.29107711509E+02  0.21217600119E+03  0.24978984094E+03  0.12553315557E+03 0.  0.
         25    2    3    3    0    0 -0.27757470025E+02 -0.29107711509E+02  0.10098880215E+03  0.16711900696E+03  0.12693418892E+03 0.  0.
          5    1    4    4  502    0  0.76438182729E+01  0.49297958497E+02  0.21500567009E+03  0.22076739986E+03  0.47000000000E+01 0. -1.
         -5    1    4    4    0  502  0.20113651752E+02 -0.20190246988E+02 -0.28296689038E+01  0.29022441082E+02  0.47000000000E+01 0. -1.
          5    1    5    5  503    0 -0.46719479620E+02  0.21120775544E+02  0.10084146049E+03  0.11322494023E+03  0.47000000000E+01 0.  1.
         -5    1    5    5    0  503  0.18962009595E+02 -0.50228487053E+02  0.14734165891E+00  0.53894066733E+02  0.47000000000E+01 0.  1.
<mgrwt>
<rscale>  0 0.27521045E+03</rscale>
<asrwt>0</asrwt>
<pdfrwt beam="1">  1        1 0.79803113E-02 0.27521045E+03</pdfrwt>
<pdfrwt beam="2">  1       -1 0.56159510E-01 0.27521045E+03</pdfrwt>
<totfact> 0.28700098E+03</totfact>
</mgrwt>
</event>
<event>
 9    1  0.2098759E-002  0.2763624E+03  0.7818608E-02  0.1097692E+00
         -1   -1    0    0    0  501 -0.00000000000E+00  0.00000000000E+00  0.11264033587E+02  0.11264033587E+02  0.00000000000E+00 0. -1.
          1   -1    0    0  501    0  0.00000000000E+00 -0.00000000000E+00 -0.16951337746E+04  0.16951337746E+04  0.00000000000E+00 0. -1.
         36    2    1    2    0    0  0.00000000000E+00  0.00000000000E+00 -0.16838697410E+04  0.17063978082E+04  0.27636239811E+03 0.  0.
         25    2    3    3    0    0 -0.35376990376E+02  0.88268317766E+01 -0.12234867401E+04  0.12307011609E+04  0.12796913653E+03 0.  0.
         25    2    3    3    0    0  0.35376990376E+02 -0.88268317766E+01 -0.46038300094E+03  0.47569664728E+03  0.11404099384E+03 0.  0.
          5    1    4    4  502    0 -0.45580489112E+02 -0.21595196806E+02 -0.18794844426E+03  0.19465518543E+03  0.47000000000E+01 0. -1.
         -5    1    4    4    0  502  0.10203498736E+02  0.30422028583E+02 -0.10355382958E+04  0.10360459755E+04  0.47000000000E+01 0. -1.
          5    1    5    5  503    0  0.62733837006E+02  0.27977711315E+02 -0.20687113825E+03  0.21802762319E+03  0.47000000000E+01 0.  1.
         -5    1    5    5    0  503 -0.27356846630E+02 -0.36804543091E+02 -0.25351186269E+03  0.25766902409E+03  0.47000000000E+01 0.  1.
<mgrwt>
<rscale>  0 0.27636240E+03</rscale>
<asrwt>0</asrwt>
<pdfrwt beam="1">  1        1 0.26078966E+00 0.27636240E+03</pdfrwt>
<pdfrwt beam="2">  1       -1 0.17329292E-02 0.27636240E+03</pdfrwt>
<totfact> 0.45033342E+03</totfact>
</mgrwt>
</event>
<event>
 9    1  0.2098759E-002  0.2752119E+03  0.7818608E-02  0.1098333E+00
         -1   -1    0    0    0  501 -0.00000000000E+00  0.00000000000E+00  0.38317767055E+02  0.38317767055E+02  0.00000000000E+00 0.  1.
          1   -1    0    0  501    0  0.00000000000E+00 -0.00000000000E+00 -0.49416739330E+03  0.49416739330E+03  0.00000000000E+00 0.  1.
         36    2    1    2    0    0 -0.71054273576E-14 -0.35527136788E-14 -0.45584962625E+03  0.53248516036E+03  0.27521185340E+03 0.  0.
         25    2    3    3    0    0  0.59293119532E+02 -0.16026952004E+02 -0.23277270499E+03  0.26897440612E+03  0.11996483546E+03 0.  0.
         25    2    3    3    0    0 -0.59293119532E+02  0.16026952004E+02 -0.22307692126E+03  0.26351075424E+03  0.12610340037E+03 0.  0.
          5    1    4    4  502    0  0.50236259474E+02 -0.28635880186E+02 -0.24297967984E+03  0.24980974803E+03  0.47000000000E+01 0. -1.
         -5    1    4    4    0  502  0.90568600578E+01  0.12608928182E+02  0.10206974850E+02  0.19164658087E+02  0.47000000000E+01 0. -1.
          5    1    5    5  503    0 -0.15234718878E+02  0.22231441132E+01 -0.21596035266E+03  0.21655946747E+03  0.47000000000E+01 0. -1.
         -5    1    5    5    0  503 -0.44058400654E+02  0.13803807890E+02 -0.71165686005E+01  0.46951286768E+02  0.47000000000E+01 0. -1.
<mgrwt>
<rscale>  0 0.27521185E+03</rscale>
<asrwt>0</asrwt>
<pdfrwt beam="1">  1        1 0.76025753E-01 0.27521185E+03</pdfrwt>
<pdfrwt beam="2">  1       -1 0.58950411E-02 0.27521185E+03</pdfrwt>
<totfact> 0.62652878E+03</totfact>
</mgrwt>
</event>
<event>
 9    1  0.2098759E-002  0.2763550E+03  0.7818608E-02  0.1097697E+00
         -2   -1    0    0    0  501 -0.00000000000E+00  0.00000000000E+00  0.24285568937E+02  0.24285568937E+02  0.00000000000E+00 0.  1.
          2   -1    0    0  501    0  0.00000000000E+00 -0.00000000000E+00 -0.78618770454E+03  0.78618770454E+03  0.00000000000E+00 0.  1.
         36    2    1    2    0    0 -0.35527136788E-14  0.00000000000E+00 -0.76190213560E+03  0.81047327347E+03  0.27635495795E+03 0.  0.
         25    2    3    3    0    0 -0.13305140258E+02 -0.12377465313E+02 -0.21876964244E+03  0.25299701748E+03  0.12576607648E+03 0.  0.
         25    2    3    3    0    0  0.13305140258E+02  0.12377465313E+02 -0.54313249315E+03  0.55747625600E+03  0.12432474602E+03 0.  0.
          5    1    4    4  502    0 -0.14167349561E+02 -0.27427097464E+02 -0.23095222212E+03  0.23305359549E+03  0.47000000000E+01 0. -1.
         -5    1    4    4    0  502  0.86220930313E+00  0.15049632150E+02  0.12182579680E+02  0.19943421983E+02  0.47000000000E+01 0. -1.
          5    1    5    5  503    0 -0.13083930991E+02  0.63069244817E+02 -0.35396796366E+03  0.35981151759E+03  0.47000000000E+01 0. -1.
         -5    1    5    5    0  503  0.26389071248E+02 -0.50691779503E+02 -0.18916452949E+03  0.19766473841E+03  0.47000000000E+01 0. -1.
<mgrwt>
<rscale>  0 0.27635496E+03</rscale>
<asrwt>0</asrwt>
<pdfrwt beam="1">  1        2 0.12095196E+00 0.27635496E+03</pdfrwt>
<pdfrwt beam="2">  1       -2 0.37362413E-02 0.27635496E+03</pdfrwt>
<totfact> 0.11015556E+04</totfact>
</mgrwt>
</event>
<event>
 9    1  0.2098759E-002  0.2766646E+03  0.7818608E-02  0.1097525E+00
         -1   -1    0    0    0  501 -0.00000000000E+00  0.00000000000E+00  0.15621807235E+03  0.15621807235E+03  0.00000000000E+00 0.  1.
          1   -1    0    0  501    0  0.00000000000E+00 -0.00000000000E+00 -0.12249429903E+03  0.12249429903E+03  0.00000000000E+00 0.  1.
         36    2    1    2    0    0  0.71054273576E-14  0.71054273576E-14  0.33723773323E+02  0.27871237138E+03  0.27666458586E+03 0.  0.
         25    2    3    3    0    0 -0.35819456429E+02 -0.31663774631E+02  0.22110420440E+02  0.14487391884E+03  0.13495908115E+03 0.  0.
         25    2    3    3    0    0  0.35819456429E+02  0.31663774631E+02  0.11613352883E+02  0.13383845254E+03  0.12446780037E+03 0.  0.
          5    1    4    4  502    0 -0.23125461890E+00 -0.33204002775E+01 -0.54956033241E+02  0.55256982602E+02  0.47000000000E+01 0.  1.
         -5    1    4    4    0  502 -0.35588201810E+02 -0.28343374354E+02  0.77066453681E+02  0.89616936239E+02  0.47000000000E+01 0.  1.
          5    1    5    5  503    0  0.80338544349E+02  0.23342383348E+02  0.23021376052E+02  0.86897769384E+02  0.47000000000E+01 0. -1.
         -5    1    5    5    0  503 -0.44519087920E+02  0.83213912833E+01 -0.11408023169E+02  0.46940683152E+02  0.47000000000E+01 0. -1.
<mgrwt>
<rscale>  0 0.27666459E+03</rscale>
<asrwt>0</asrwt>
<pdfrwt beam="1">  1        1 0.18845277E-01 0.27666459E+03</pdfrwt>
<pdfrwt beam="2">  1       -1 0.24033550E-01 0.27666459E+03</pdfrwt>
<totfact> 0.40815176E+03</totfact>
</mgrwt>
</event>
<event>
 9    1  0.2098759E-002  0.2743334E+03  0.7818608E-02  0.1098825E+00
         -2   -1    0    0    0  501 -0.00000000000E+00  0.00000000000E+00  0.25840068414E+02  0.25840068414E+02  0.00000000000E+00 0. -1.
          2   -1    0    0  501    0  0.00000000000E+00 -0.00000000000E+00 -0.72812126851E+03  0.72812126851E+03  0.00000000000E+00 0. -1.
         36    2    1    2    0    0  0.00000000000E+00  0.00000000000E+00 -0.70228120010E+03  0.75396133692E+03  0.27433339856E+03 0.  0.
         25    2    3    3    0    0  0.61883981626E+02  0.32567453844E+02 -0.32992015939E+03  0.35604007593E+03  0.11413569936E+03 0.  0.
         25    2    3    3    0    0 -0.61883981626E+02 -0.32567453844E+02 -0.37236104071E+03  0.39792126099E+03  0.12164834186E+03 0.  0.
          5    1    4    4  502    0  0.80371916999E+02  0.58732857721E+02 -0.27202434408E+03  0.28970420672E+03  0.47000000000E+01 0. -1.
         -5    1    4    4    0  502 -0.18487935374E+02 -0.26165403877E+02 -0.57895815304E+02  0.66335869213E+02  0.47000000000E+01 0. -1.
          5    1    5    5  503    0 -0.85754286059E+02 -0.59116825483E+02 -0.27241031386E+03  0.29168144564E+03  0.47000000000E+01 0.  1.
         -5    1    5    5    0  503  0.23870304433E+02  0.26549371639E+02 -0.99950726854E+02  0.10623981536E+03  0.47000000000E+01 0.  1.
<mgrwt>
<rscale>  0 0.27433340E+03</rscale>
<asrwt>0</asrwt>
<pdfrwt beam="1">  1        2 0.11201865E+00 0.27433340E+03</pdfrwt>
<pdfrwt beam="2">  1       -2 0.39753953E-02 0.27433340E+03</pdfrwt>
<totfact> 0.11039694E+04</totfact>
</mgrwt>
</event>
<event>
 9    1  0.2098759E-002  0.2742312E+03  0.7818608E-02  0.1098882E+00
          1   -1    0    0  501    0  0.00000000000E+00  0.00000000000E+00  0.17778361170E+03  0.17778361170E+03  0.00000000000E+00 0. -1.
         -1   -1    0    0    0  501 -0.00000000000E+00 -0.00000000000E+00 -0.10575039347E+03  0.10575039347E+03  0.00000000000E+00 0. -1.
         36    2    1    2    0    0  0.71054273576E-14 -0.35527136788E-14  0.72033218235E+02  0.28353400517E+03  0.27423119363E+03 0.  0.
         25    2    3    3    0    0 -0.57440089647E+02 -0.70738229256E+01  0.21562344972E+02  0.13992729947E+03  0.12555999182E+03 0.  0.
         25    2    3    3    0    0  0.57440089647E+02  0.70738229256E+01  0.50470873263E+02  0.14360670570E+03  0.12135144830E+03 0.  0.
          5    1    4    4  502    0 -0.85525443442E+02 -0.69036751839E+01  0.50216957775E+02  0.99529367803E+02  0.47000000000E+01 0.  1.
         -5    1    4    4    0  502  0.28085353795E+02 -0.17014774174E+00 -0.28654612803E+02  0.40397931667E+02  0.47000000000E+01 0.  1.
          5    1    5    5  503    0  0.35546840661E+02  0.39182678707E+02 -0.24912753602E+02  0.58665113004E+02  0.47000000000E+01 0. -1.
         -5    1    5    5    0  503  0.21893248986E+02 -0.32108855782E+02  0.75383626866E+02  0.84941592698E+02  0.47000000000E+01 0. -1.
<mgrwt>
<rscale>  0 0.27423119E+03</rscale>
<asrwt>0</asrwt>
<pdfrwt beam="1">  1        1 0.27351325E-01 0.27423119E+03</pdfrwt>
<pdfrwt beam="2">  1       -1 0.16269291E-01 0.27423119E+03</pdfrwt>
<totfact> 0.47753968E+03</totfact>
</mgrwt>
</event>
<event>
 9    1  0.2098759E-002  0.2744554E+03  0.7818608E-02  0.1098756E+00
          2   -1    0    0  501    0  0.00000000000E+00  0.00000000000E+00  0.20518748538E+03  0.20518748538E+03  0.00000000000E+00 0.  1.
         -2   -1    0    0    0  501 -0.00000000000E+00 -0.00000000000E+00 -0.91776751989E+02  0.91776751989E+02  0.00000000000E+00 0.  1.
         36    2    1    2    0    0  0.00000000000E+00  0.71054273576E-14  0.11341073339E+03  0.29696423737E+03  0.27445539497E+03 0.  0.
         25    2    3    3    0    0  0.57282411270E+01  0.33018454769E+02  0.10883416830E+03  0.16903567898E+03  0.12492058868E+03 0.  0.
         25    2    3    3    0    0 -0.57282411270E+01 -0.33018454769E+02  0.45765650847E+01  0.12792855839E+03  0.12337641590E+03 0.  0.
          5    1    4    4  502    0 -0.32048947083E+02  0.47339792343E+02  0.50698173463E+01  0.57584581236E+02  0.47000000000E+01 0. -1.
         -5    1    4    4    0  502  0.37777188210E+02 -0.14321337574E+02  0.10376435096E+03  0.11145109775E+03  0.47000000000E+01 0. -1.
          5    1    5    5  503    0  0.32891458911E+02  0.36418973021E+01  0.48389984100E+02  0.58811495870E+02  0.47000000000E+01 0.  1.
         -5    1    5    5    0  503 -0.38619700038E+02 -0.36660352071E+02 -0.43813419016E+02  0.69117062516E+02  0.47000000000E+01 0.  1.
<mgrwt>
<rscale>  0 0.27445539E+03</rscale>
<asrwt>0</asrwt>
<pdfrwt beam="1">  1        2 0.31567305E-01 0.27445539E+03</pdfrwt>
<pdfrwt beam="2">  1       -2 0.14119500E-01 0.27445539E+03</pdfrwt>
<totfact> 0.62254606E+03</totfact>
</mgrwt>
</event>
<event>
 9    1  0.2098759E-002  0.2739363E+03  0.7818608E-02  0.1099048E+00
          1   -1    0    0  501    0  0.00000000000E+00  0.00000000000E+00  0.13477747087E+04  0.13477747087E+04  0.00000000000E+00 0.  1.
         -1   -1    0    0    0  501 -0.00000000000E+00 -0.00000000000E+00 -0.13919443315E+02  0.13919443315E+02  0.00000000000E+00 0.  1.
         36    2    1    2    0    0  0.00000000000E+00  0.13322676296E-14  0.13338552654E+04  0.13616941521E+04  0.27393629668E+03 0.  0.
         25    2    3    3    0    0  0.45028985813E+01 -0.38305986196E+01  0.41174971453E+03  0.43090282508E+03  0.12690337924E+03 0.  0.
         25    2    3    3    0    0 -0.45028985813E+01  0.38305986196E+01  0.92210555089E+03  0.93079132698E+03  0.12672370656E+03 0.  0.
          5    1    4    4  502    0  0.56849055644E+02 -0.34007691068E+02  0.21094853904E+03  0.22115540758E+03  0.47000000000E+01 0. -1.
         -5    1    4    4    0  502 -0.52346157063E+02  0.30177092448E+02  0.20080117549E+03  0.20974741750E+03  0.47000000000E+01 0. -1.
          5    1    5    5  503    0  0.60929877454E+02  0.27270166392E+01  0.46136185754E+03  0.46539954896E+03  0.47000000000E+01 0. -1.
         -5    1    5    5    0  503 -0.65432776036E+02  0.11035819804E+01  0.46074369336E+03  0.46539177801E+03  0.47000000000E+01 0. -1.
<mgrwt>
<rscale>  0 0.27393630E+03</rscale>
<asrwt>0</asrwt>
<pdfrwt beam="1">  1        1 0.20734985E+00 0.27393630E+03</pdfrwt>
<pdfrwt beam="2">  1       -1 0.21414539E-02 0.27393630E+03</pdfrwt>
<totfact> 0.56149224E+03</totfact>
</mgrwt>
</event>
<event>
 9    1  0.2098759E-002  0.2737696E+03  0.7818608E-02  0.1099141E+00
          1   -1    0    0  501    0  0.00000000000E+00  0.00000000000E+00  0.23098922263E+02  0.23098922263E+02  0.00000000000E+00 0. -1.
         -1   -1    0    0    0  501 -0.00000000000E+00 -0.00000000000E+00 -0.81118267472E+03  0.81118267472E+03  0.00000000000E+00 0. -1.
         36    2    1    2    0    0  0.00000000000E+00 -0.71054273576E-14 -0.78808375245E+03  0.83428159698E+03  0.27376957862E+03 0.  0.
         25    2    3    3    0    0  0.41529409568E+02  0.35938435620E+02 -0.34481629680E+03  0.37044245181E+03  0.12374598396E+03 0.  0.
         25    2    3    3    0    0 -0.41529409568E+02 -0.35938435620E+02 -0.44326745565E+03  0.46383914517E+03  0.12507778516E+03 0.  0.
          5    1    4    4  502    0  0.89089043785E+01  0.77177860155E+02 -0.25103074369E+03  0.26281992876E+03  0.47000000000E+01 0. -1.
         -5    1    4    4    0  502  0.32620505190E+02 -0.41239424535E+02 -0.93785553108E+02  0.10762252305E+03  0.47000000000E+01 0. -1.
          5    1    5    5  503    0 -0.49316704025E+02 -0.45826476290E+02 -0.10198047130E+03  0.12228781522E+03  0.47000000000E+01 0.  1.
         -5    1    5    5    0  503  0.77872944564E+01  0.98880406700E+01 -0.34128698435E+03  0.34155132995E+03  0.47000000000E+01 0.  1.
<mgrwt>
<rscale>  0 0.27376958E+03</rscale>
<asrwt>0</asrwt>
<pdfrwt beam="1">  1        1 0.35536808E-02 0.27376958E+03</pdfrwt>
<pdfrwt beam="2">  1       -1 0.12479732E+00 0.27376958E+03</pdfrwt>
<totfact> 0.16142853E+03</totfact>
</mgrwt>
</event>
<event>
 9    1  0.2098759E-002  0.2844168E+03  0.7818608E-02  0.1093301E+00
         -1   -1    0    0    0  501 -0.00000000000E+00  0.00000000000E+00  0.51804554136E+02  0.51804554136E+02  0.00000000000E+00 0. -1.
          1   -1    0    0  501    0  0.00000000000E+00 -0.00000000000E+00 -0.39037539438E+03  0.39037539438E+03  0.00000000000E+00 0. -1.
         36    2    1    2    0    0  0.35527136788E-14  0.14210854715E-13 -0.33857084024E+03  0.44217994851E+03  0.28441675936E+03 0.  0.
         25    2    3    3    0    0 -0.20767767177E+02 -0.48254692371E+02 -0.19304837699E+03  0.23812195446E+03  0.12913006562E+03 0.  0.
         25    2    3    3    0    0  0.20767767177E+02  0.48254692371E+02 -0.14552246325E+03  0.20405799405E+03  0.13305285468E+03 0.  0.
          5    1    4    4  502    0 -0.12257258515E+02 -0.29676388256E+01  0.17760817390E+02  0.22284162557E+02  0.47000000000E+01 0. -1.
         -5    1    4    4    0  502 -0.85105086621E+01 -0.45287053545E+02 -0.21080919438E+03  0.21583779190E+03  0.47000000000E+01 0. -1.
          5    1    5    5  503    0  0.31123582195E+02 -0.18892873253E+02  0.66796151774E+01  0.37313875266E+02  0.47000000000E+01 0.  1.
         -5    1    5    5    0  503 -0.10355815019E+02  0.67147565624E+02 -0.15220207842E+03  0.16674411879E+03  0.47000000000E+01 0.  1.
<mgrwt>
<rscale>  0 0.28441676E+03</rscale>
<asrwt>0</asrwt>
<pdfrwt beam="1">  1        1 0.60057752E-01 0.28441676E+03</pdfrwt>
<pdfrwt beam="2">  1       -1 0.79699315E-02 0.28441676E+03</pdfrwt>
<totfact> 0.53925250E+03</totfact>
</mgrwt>
</event>
<event>
 9    1  0.2098759E-002  0.2747303E+03  0.7818608E-02  0.1098602E+00
          2   -1    0    0  501    0  0.00000000000E+00  0.00000000000E+00  0.98915398577E+03  0.98915398577E+03  0.00000000000E+00 0. -1.
         -2   -1    0    0    0  501 -0.00000000000E+00 -0.00000000000E+00 -0.19076084636E+02  0.19076084636E+02  0.00000000000E+00 0. -1.
         36    2    1    2    0    0  0.71054273576E-14  0.00000000000E+00  0.97007790114E+03  0.10082300704E+04  0.27473030521E+03 0.  0.
         25    2    3    3    0    0  0.15866894905E+02 -0.60358152783E+02  0.39129262014E+03  0.41272536319E+03  0.11548786031E+03 0.  0.
         25    2    3    3    0    0 -0.15866894905E+02  0.60358152783E+02  0.57878528100E+03  0.59550470722E+03  0.12545353668E+03 0.  0.
          5    1    4    4  502    0  0.24742458830E+02  0.11523714012E+02  0.19395836903E+02  0.33812331224E+02  0.47000000000E+01 0. -1.
         -5    1    4    4    0  502 -0.88755639256E+01 -0.71881866795E+02  0.37189678324E+03  0.37891303196E+03  0.47000000000E+01 0. -1.
          5    1    5    5  503    0  0.43846620597E+01  0.46499549114E+02  0.56504263172E+03  0.56698915245E+03  0.47000000000E+01 0.  1.
         -5    1    5    5    0  503 -0.20251556964E+02  0.13858603669E+02  0.13742649276E+02  0.28515554778E+02  0.47000000000E+01 0.  1.
<mgrwt>
<rscale>  0 0.27473031E+03</rscale>
<asrwt>0</asrwt>
<pdfrwt beam="1">  1        2 0.15217750E+00 0.27473031E+03</pdfrwt>
<pdfrwt beam="2">  1       -2 0.29347830E-02 0.27473031E+03</pdfrwt>
<totfact> 0.11641330E+04</totfact>
</mgrwt>
</event>
<event>
 9    1  0.2098759E-002  0.2750434E+03  0.7818608E-02  0.1098427E+00
          2   -1    0    0  501    0  0.00000000000E+00  0.00000000000E+00  0.14457301530E+04  0.14457301530E+04  0.00000000000E+00 0.  1.
         -2   -1    0    0    0  501 -0.00000000000E+00 -0.00000000000E+00 -0.13081430824E+02  0.13081430824E+02  0.00000000000E+00 0.  1.
         36    2    1    2    0    0  0.71054273576E-14  0.71054273576E-14  0.14326487222E+04  0.14588115839E+04  0.27504340739E+03 0.  0.
         25    2    3    3    0    0  0.28349507756E+02 -0.22669519489E+01  0.39037616296E+03  0.40864416749E+03  0.11742092384E+03 0.  0.
         25    2    3    3    0    0 -0.28349507756E+02  0.22669519489E+01  0.10422725593E+04  0.10501674164E+04  0.12534225533E+03 0.  0.
          5    1    4    4  502    0  0.56650954283E+02 -0.42777261662E+02  0.22522537246E+03  0.23619437575E+03  0.47000000000E+01 0. -1.
         -5    1    4    4    0  502 -0.28301446528E+02  0.40510309713E+02  0.16515079051E+03  0.17244979175E+03  0.47000000000E+01 0. -1.
          5    1    5    5  503    0 -0.51453933246E+02  0.43173341235E+02  0.82906193395E+03  0.83179157543E+03  0.47000000000E+01 0.  1.
         -5    1    5    5    0  503  0.23104425490E+02 -0.40906389286E+02  0.21321062531E+03  0.21837584094E+03  0.47000000000E+01 0.  1.
<mgrwt>
<rscale>  0 0.27504341E+03</rscale>
<asrwt>0</asrwt>
<pdfrwt beam="1">  1        2 0.22241990E+00 0.27504341E+03</pdfrwt>
<pdfrwt beam="2">  1       -2 0.20125290E-02 0.27504341E+03</pdfrwt>
<totfact> 0.11177627E+04</totfact>
</mgrwt>
</event>
<event>
 9    1  0.2098759E-002  0.2745588E+03  0.7818608E-02  0.1098698E+00
         -2   -1    0    0    0  501 -0.00000000000E+00  0.00000000000E+00  0.18952105806E+03  0.18952105806E+03  0.00000000000E+00 0.  1.
          2   -1    0    0  501    0  0.00000000000E+00 -0.00000000000E+00 -0.99438218460E+02  0.99438218460E+02  0.00000000000E+00 0.  1.
         36    2    1    2    0    0  0.00000000000E+00 -0.71054273576E-14  0.90082839602E+02  0.28895927652E+03  0.27455881974E+03 0.  0.
         25    2    3    3    0    0 -0.54859541565E+01  0.33624804456E+02  0.11577451654E+02  0.12991591578E+03  0.12483342749E+03 0.  0.
         25    2    3    3    0    0  0.54859541565E+01 -0.33624804456E+02  0.78505387947E+02  0.15904336074E+03  0.13405585213E+03 0.  0.
          5    1    4    4  502    0  0.47141390688E+02 -0.17001922884E+01  0.38324514913E+02  0.60959493216E+02  0.47000000000E+01 0.  1.
         -5    1    4    4    0  502 -0.52627344844E+02  0.35324996744E+02 -0.26747063259E+02  0.68956422567E+02  0.47000000000E+01 0.  1.
          5    1    5    5  503    0  0.34833741348E+02 -0.39460660166E+02 -0.19604325924E+02  0.56364464266E+02  0.47000000000E+01 0.  1.
         -5    1    5    5    0  503 -0.29347787191E+02  0.58358557104E+01  0.98109713872E+02  0.10267889647E+03  0.47000000000E+01 0.  1.
<mgrwt>
<rscale>  0 0.27455882E+03</rscale>
<asrwt>0</asrwt>
<pdfrwt beam="1">  1        2 0.15298187E-01 0.27455882E+03</pdfrwt>
<pdfrwt beam="2">  1       -2 0.29157086E-01 0.27455882E+03</pdfrwt>
<totfact> 0.40771532E+03</totfact>
</mgrwt>
</event>
<event>
 9    1  0.2098759E-002  0.2758287E+03  0.7818608E-02  0.1097989E+00
          2   -1    0    0  501    0  0.00000000000E+00  0.00000000000E+00  0.57123028907E+03  0.57123028907E+03  0.00000000000E+00 0.  1.
         -2   -1    0    0    0  501 -0.00000000000E+00 -0.00000000000E+00 -0.33297195604E+02  0.33297195604E+02  0.00000000000E+00 0.  1.
         36    2    1    2    0    0  0.00000000000E+00 -0.35527136788E-14  0.53793309347E+03  0.60452748468E+03  0.27582869082E+03 0.  0.
         25    2    3    3    0    0 -0.54971227000E+02 -0.24062326195E+02  0.27028638593E+03  0.29912904609E+03  0.11323702775E+03 0.  0.
         25    2    3    3    0    0  0.54971227000E+02  0.24062326195E+02  0.26764670754E+03  0.30539843859E+03  0.13428557218E+03 0.  0.
          5    1    4    4  502    0 -0.33621316962E+02 -0.67361877346E+02  0.12540702675E+03  0.14634557674E+03  0.47000000000E+01 0.  1.
         -5    1    4    4    0  502 -0.21349910038E+02  0.43299551151E+02  0.14487935918E+03  0.15278346935E+03  0.47000000000E+01 0.  1.
          5    1    5    5  503    0  0.39308425456E+02  0.44807862889E+02  0.27211587773E+03  0.27860731829E+03  0.47000000000E+01 0.  1.
         -5    1    5    5    0  503  0.15662801544E+02 -0.20745536694E+02 -0.44691701926E+01  0.26791120304E+02  0.47000000000E+01 0.  1.
<mgrwt>
<rscale>  0 0.27582869E+03</rscale>
<asrwt>0</asrwt>
<pdfrwt beam="1">  1        2 0.87881576E-01 0.27582869E+03</pdfrwt>
<pdfrwt beam="2">  1       -2 0.51226459E-02 0.27582869E+03</pdfrwt>
<totfact> 0.10033598E+04</totfact>
</mgrwt>
</event>
<event>
 9    1  0.2098759E-002  0.2748336E+03  0.7818608E-02  0.1098545E+00
          1   -1    0    0  501    0  0.00000000000E+00  0.00000000000E+00  0.15685320265E+03  0.15685320265E+03  0.00000000000E+00 0.  1.
         -1   -1    0    0    0  501 -0.00000000000E+00 -0.00000000000E+00 -0.12038885122E+03  0.12038885122E+03  0.00000000000E+00 0.  1.
         36    2    1    2    0    0 -0.71054273576E-14  0.00000000000E+00  0.36464351432E+02  0.27724205388E+03  0.27483359968E+03 0.  0.
         25    2    3    3    0    0  0.16933725226E+02 -0.53095454926E+02  0.64130642507E+01  0.13815844335E+03  0.12625668178E+03 0.  0.
         25    2    3    3    0    0 -0.16933725226E+02  0.53095454926E+02  0.30051287181E+02  0.13908361052E+03  0.12383574795E+03 0.  0.
          5    1    4    4  502    0  0.23989854572E+02  0.32294308345E+02 -0.24045775481E+02  0.47103341626E+02  0.47000000000E+01 0. -1.
         -5    1    4    4    0  502 -0.70561293464E+01 -0.85389763270E+02  0.30458839732E+02  0.91055101727E+02  0.47000000000E+01 0. -1.
          5    1    5    5  503    0  0.47336530573E+02 -0.65049399402E+01  0.11363878905E+02  0.49338515524E+02  0.47000000000E+01 0. -1.
         -5    1    5    5    0  503 -0.64270255799E+02  0.59600394866E+02  0.18687408276E+02  0.89745095001E+02  0.47000000000E+01 0. -1.
<mgrwt>
<rscale>  0 0.27483360E+03</rscale>
<asrwt>0</asrwt>
<pdfrwt beam="1">  1        1 0.24131262E-01 0.27483360E+03</pdfrwt>
<pdfrwt beam="2">  1       -1 0.18521362E-01 0.27483360E+03</pdfrwt>
<totfact> 0.45478830E+03</totfact>
</mgrwt>
</event>
<event>
 9    1  0.2098759E-002  0.2732955E+03  0.7818608E-02  0.1099408E+00
         -2   -1    0    0    0  501 -0.00000000000E+00  0.00000000000E+00  0.22846811766E+02  0.22846811766E+02  0.00000000000E+00 0. -1.
          2   -1    0    0  501    0  0.00000000000E+00 -0.00000000000E+00 -0.81729622875E+03  0.81729622875E+03  0.00000000000E+00 0. -1.
         36    2    1    2    0    0  0.00000000000E+00 -0.35527136788E-14 -0.79444941699E+03  0.84014304052E+03  0.27329554036E+03 0.  0.
         25    2    3    3    0    0  0.47088518853E+02  0.82773426347E+00 -0.33588849786E+03  0.36267024025E+03  0.12841575609E+03 0.  0.
         25    2    3    3    0    0 -0.47088518853E+02 -0.82773426347E+00 -0.45856091912E+03  0.47747280027E+03  0.12443530328E+03 0.  0.
          5    1    4    4  502    0  0.71340514483E+02 -0.45056294252E+02 -0.21619347419E+03  0.23212334424E+03  0.47000000000E+01 0. -1.
         -5    1    4    4    0  502 -0.24251995630E+02  0.45884028516E+02 -0.11969502367E+03  0.13054689600E+03  0.47000000000E+01 0. -1.
          5    1    5    5  503    0 -0.88648208836E+02  0.11212781265E+02 -0.31447303295E+03  0.32695505784E+03  0.47000000000E+01 0.  1.
         -5    1    5    5    0  503  0.41559689983E+02 -0.12040515528E+02 -0.14408788617E+03  0.15051774243E+03  0.47000000000E+01 0.  1.
<mgrwt>
<rscale>  0 0.27329554E+03</rscale>
<asrwt>0</asrwt>
<pdfrwt beam="1">  1        2 0.12573787E+00 0.27329554E+03</pdfrwt>
<pdfrwt beam="2">  1       -2 0.35148945E-02 0.27329554E+03</pdfrwt>
<totfact> 0.11484319E+04</totfact>
</mgrwt>
</event>
<event>
 9    1  0.2098759E-002  0.2751201E+03  0.7818608E-02  0.1098385E+00
          3   -1    0    0  501    0  0.00000000000E+00  0.00000000000E+00  0.35790736703E+03  0.35790736703E+03  0.00000000000E+00 0.  1.
         -3   -1    0    0    0  501 -0.00000000000E+00 -0.00000000000E+00 -0.52870553501E+02  0.52870553501E+02  0.00000000000E+00 0.  1.
         36    2    1    2    0    0  0.00000000000E+00  0.14210854715E-13  0.30503681352E+03  0.41077792053E+03  0.27512005086E+03 0.  0.
         25    2    3    3    0    0  0.43679426657E+02 -0.33181958298E+02  0.18548968997E+03  0.22945949625E+03  0.12343541089E+03 0.  0.
         25    2    3    3    0    0 -0.43679426657E+02  0.33181958298E+02  0.11954712355E+03  0.18131842428E+03  0.12480353186E+03 0.  0.
          5    1    4    4  502    0  0.31192998397E+02  0.24709880748E+01 -0.76916447030E+01  0.32563174435E+02  0.47000000000E+01 0.  1.
         -5    1    4    4    0  502  0.12486428261E+02 -0.35652946372E+02  0.19318133468E+03  0.19689632181E+03  0.47000000000E+01 0.  1.
          5    1    5    5  503    0 -0.50484947723E+01 -0.11176214779E+02 -0.23309177597E+02  0.26754491894E+02  0.47000000000E+01 0. -1.
         -5    1    5    5    0  503 -0.38630931885E+02  0.44358173076E+02  0.14285630115E+03  0.15456393239E+03  0.47000000000E+01 0. -1.
<mgrwt>
<rscale>  0 0.27512005E+03</rscale>
<asrwt>0</asrwt>
<pdfrwt beam="1">  1        3 0.55062670E-01 0.27512005E+03</pdfrwt>
<pdfrwt beam="2">  1       -3 0.81339315E-02 0.27512005E+03</pdfrwt>
<totfact> 0.86748065E+02</totfact>
</mgrwt>
</event>
<event>
 9    1  0.2098759E-002  0.2773400E+03  0.7818608E-02  0.1097151E+00
          3   -1    0    0  501    0  0.00000000000E+00  0.00000000000E+00  0.28626593346E+02  0.28626593346E+02  0.00000000000E+00 0. -1.
         -3   -1    0    0    0  501 -0.00000000000E+00 -0.00000000000E+00 -0.67173076684E+03  0.67173076684E+03  0.00000000000E+00 0. -1.
         36    2    1    2    0    0 -0.17763568394E-14  0.00000000000E+00 -0.64310417350E+03  0.70035736019E+03  0.27733996106E+03 0.  0.
         25    2    3    3    0    0 -0.12016460445E+02  0.30061367054E+02 -0.45434897741E+03  0.47322660734E+03  0.12830567994E+03 0.  0.
         25    2    3    3    0    0  0.12016460445E+02 -0.30061367054E+02 -0.18875519608E+03  0.22713075285E+03  0.12211377372E+03 0.  0.
          5    1    4    4  502    0  0.75652106460E+01  0.65699230373E+02 -0.12640011965E+03  0.14273297282E+03  0.47000000000E+01 0.  1.
         -5    1    4    4    0  502 -0.19581671091E+02 -0.35637863318E+02 -0.32794885777E+03  0.33049363451E+03  0.47000000000E+01 0.  1.
          5    1    5    5  503    0  0.17327869481E+01  0.32556423279E+02 -0.14787650460E+03  0.15150073881E+03  0.47000000000E+01 0.  1.
         -5    1    5    5    0  503  0.10283673496E+02 -0.62617790334E+02 -0.40878691485E+02  0.75630014044E+02  0.47000000000E+01 0.  1.
<mgrwt>
<rscale>  0 0.27733996E+03</rscale>
<asrwt>0</asrwt>
<pdfrwt beam="1">  1        3 0.44040914E-02 0.27733996E+03</pdfrwt>
<pdfrwt beam="2">  1       -3 0.10334319E+00 0.27733996E+03</pdfrwt>
<totfact> 0.59415886E+02</totfact>
</mgrwt>
</event>
<event>
 9    1  0.2098759E-002  0.2747175E+03  0.7818608E-02  0.1098610E+00
         -1   -1    0    0    0  501 -0.00000000000E+00  0.00000000000E+00  0.17066099572E+03  0.17066099572E+03  0.00000000000E+00 0. -1.
          1   -1    0    0  501    0  0.00000000000E+00 -0.00000000000E+00 -0.11055500370E+03  0.11055500370E+03  0.00000000000E+00 0. -1.
         36    2    1    2    0    0  0.35527136788E-14  0.33306690739E-14  0.60105992022E+02  0.28121599943E+03  0.27471750591E+03 0.  0.
         25    2    3    3    0    0 -0.13766927446E+02  0.19023062734E+01 -0.28068396153E+02  0.12790727404E+03  0.12401326070E+03 0.  0.
         25    2    3    3    0    0  0.13766927446E+02 -0.19023062734E+01  0.88174388175E+02  0.15330872539E+03  0.12464227007E+03 0.  0.
          5    1    4    4  502    0 -0.21311239844E+02 -0.59137932021E+02 -0.16318999524E+02  0.65114235716E+02  0.47000000000E+01 0. -1.
         -5    1    4    4    0  502  0.75443123982E+01  0.61040238295E+02 -0.11749396629E+02  0.62793038323E+02  0.47000000000E+01 0. -1.
          5    1    5    5  503    0 -0.50796828252E+02  0.15069379038E+01  0.68777254689E+02  0.85644552569E+02  0.47000000000E+01 0. -1.
         -5    1    5    5    0  503  0.64563755697E+02 -0.34092441771E+01  0.19397133486E+02  0.67664172818E+02  0.47000000000E+01 0. -1.
<mgrwt>
<rscale>  0 0.27471751E+03</rscale>
<asrwt>0</asrwt>
<pdfrwt beam="1">  1        1 0.17008462E-01 0.27471751E+03</pdfrwt>
<pdfrwt beam="2">  1       -1 0.26255538E-01 0.27471751E+03</pdfrwt>
<totfact> 0.40236206E+03</totfact>
</mgrwt>
</event>
<event>
 9    1  0.2098759E-002  0.2746340E+03  0.7818608E-02  0.1098656E+00
         -1   -1    0    0    0  501 -0.00000000000E+00  0.00000000000E+00  0.78554183869E+02  0.78554183869E+02  0.00000000000E+00 0.  1.
          1   -1    0    0  501    0  0.00000000000E+00 -0.00000000000E+00 -0.24003769004E+03  0.24003769004E+03  0.00000000000E+00 0.  1.
         36    2    1    2    0    0  0.71054273576E-14  0.00000000000E+00 -0.16148350617E+03  0.31859187391E+03  0.27463404624E+03 0.  0.
         25    2    3    3    0    0 -0.40152702480E+02  0.39249396601E+02 -0.92313426419E+02  0.16581063871E+03  0.12577219312E+03 0.  0.
         25    2    3    3    0    0  0.40152702480E+02 -0.39249396601E+02 -0.69170079753E+02  0.15278123520E+03  0.12411628115E+03 0.  0.
          5    1    4    4  502    0  0.11561283289E+02 -0.14151612811E+01 -0.98747219333E+02  0.99542801240E+02  0.47000000000E+01 0.  1.
         -5    1    4    4    0  502 -0.51713985770E+02  0.40664557882E+02  0.64337929137E+01  0.66267837471E+02  0.47000000000E+01 0.  1.
          5    1    5    5  503    0 -0.10019146564E+02 -0.57269092723E+01 -0.88402003783E+02  0.89275892942E+02  0.47000000000E+01 0.  1.
         -5    1    5    5    0  503  0.50171849044E+02 -0.33522487328E+02  0.19231924030E+02  0.63505342256E+02  0.47000000000E+01 0.  1.
<mgrwt>
<rscale>  0 0.27463405E+03</rscale>
<asrwt>0</asrwt>
<pdfrwt beam="1">  1        1 0.36928874E-01 0.27463405E+03</pdfrwt>
<pdfrwt beam="2">  1       -1 0.12085259E-01 0.27463405E+03</pdfrwt>
<totfact> 0.52315222E+03</totfact>
</mgrwt>
</event>
<event>
 9    1  0.2098759E-002  0.2753195E+03  0.7818608E-02  0.1098273E+00
         -2   -1    0    0    0  501 -0.00000000000E+00  0.00000000000E+00  0.29858417150E+02  0.29858417150E+02  0.00000000000E+00 0.  1.
          2   -1    0    0  501    0  0.00000000000E+00 -0.00000000000E+00 -0.63466885347E+03  0.63466885347E+03  0.00000000000E+00 0.  1.
         36    2    1    2    0    0  0.00000000000E+00  0.71054273576E-14 -0.60481043632E+03  0.66452727062E+03  0.27531950442E+03 0.  0.
         25    2    3    3    0    0  0.32827856653E+02  0.31085800807E+02 -0.34074343833E+03  0.36933623370E+03  0.13512648731E+03 0.  0.
         25    2    3    3    0    0 -0.32827856653E+02 -0.31085800807E+02 -0.26406699799E+03  0.29519103692E+03  0.12394504293E+03 0.  0.
          5    1    4    4  502    0  0.51046863635E-01 -0.29716537985E+02 -0.26506295976E+03  0.26676494873E+03  0.47000000000E+01 0.  1.
         -5    1    4    4    0  502  0.32776809789E+02  0.60802338792E+02 -0.75680478571E+02  0.10257128496E+03  0.47000000000E+01 0.  1.
          5    1    5    5  503    0 -0.26199835682E+02 -0.66584961411E+02 -0.24247031636E+03  0.25285160232E+03  0.47000000000E+01 0. -1.
         -5    1    5    5    0  503 -0.66280209710E+01  0.35499160604E+02 -0.21596681625E+02  0.42339434606E+02  0.47000000000E+01 0. -1.
<mgrwt>
<rscale>  0 0.27531950E+03</rscale>
<asrwt>0</asrwt>
<pdfrwt beam="1">  1        2 0.97641364E-01 0.27531950E+03</pdfrwt>
<pdfrwt beam="2">  1       -2 0.45936025E-02 0.27531950E+03</pdfrwt>
<totfact> 0.10473233E+04</totfact>
</mgrwt>
</event>
<event>
 9    1  0.2098759E-002  0.2753466E+03  0.7818608E-02  0.1098258E+00
          4   -1    0    0  501    0  0.00000000000E+00  0.00000000000E+00  0.10153794690E+03  0.10153794690E+03  0.00000000000E+00 0.  1.
         -4   -1    0    0    0  501 -0.00000000000E+00 -0.00000000000E+00 -0.18666855583E+03  0.18666855583E+03  0.00000000000E+00 0.  1.
         36    2    1    2    0    0 -0.71054273576E-14  0.35527136788E-14 -0.85130608929E+02  0.28820650272E+03  0.27534663178E+03 0.  0.
         25    2    3    3    0    0  0.30095208425E+02  0.12063863607E+02 -0.73476104970E+01  0.13280278990E+03  0.12857424023E+03 0.  0.
         25    2    3    3    0    0 -0.30095208425E+02 -0.12063863607E+02 -0.77782998432E+02  0.15540371282E+03  0.13057128604E+03 0.  0.
          5    1    4    4  502    0  0.35527998427E+02  0.24187475790E+02  0.54387781783E+02  0.69479446346E+02  0.47000000000E+01 0.  1.
         -5    1    4    4    0  502 -0.54327900019E+01 -0.12123612183E+02 -0.61735392280E+02  0.63323343559E+02  0.47000000000E+01 0.  1.
          5    1    5    5  503    0 -0.47604167860E+02  0.38842837365E+02 -0.11458098075E+01  0.61630558105E+02  0.47000000000E+01 0.  1.
         -5    1    5    5    0  503  0.17508959434E+02 -0.50906700972E+02 -0.76637188624E+02  0.93773154712E+02  0.47000000000E+01 0.  1.
<mgrwt>
<rscale>  0 0.27534663E+03</rscale>
<asrwt>0</asrwt>
<pdfrwt beam="1">  1        4 0.15621223E-01 0.27534663E+03</pdfrwt>
<pdfrwt beam="2">  1       -4 0.28718239E-01 0.27534663E+03</pdfrwt>
<totfact> 0.76030691E+02</totfact>
</mgrwt>
</event>
<event>
 9    1  0.2098759E-002  0.2752218E+03  0.7818608E-02  0.1098328E+00
          2   -1    0    0  501    0  0.00000000000E+00  0.00000000000E+00  0.29634939326E+02  0.29634939326E+02  0.00000000000E+00 0. -1.
         -2   -1    0    0    0  501 -0.00000000000E+00 -0.00000000000E+00 -0.63900126594E+03  0.63900126594E+03  0.00000000000E+00 0. -1.
         36    2    1    2    0    0 -0.71054273576E-14  0.00000000000E+00 -0.60936632662E+03  0.66863620527E+03  0.27522182868E+03 0.  0.
         25    2    3    3    0    0 -0.33284645622E+02 -0.40183766694E+02 -0.21745268266E+03  0.25231289380E+03  0.11684829671E+03 0.  0.
         25    2    3    3    0    0  0.33284645622E+02  0.40183766694E+02 -0.39191364396E+03  0.41632331147E+03  0.13040779351E+03 0.  0.
          5    1    4    4  502    0  0.24650788034E+02  0.17421373589E+02 -0.15179739092E+02  0.34112755493E+02  0.47000000000E+01 0.  1.
         -5    1    4    4    0  502 -0.57935433656E+02 -0.57605140283E+02 -0.20227294356E+03  0.21820013831E+03  0.47000000000E+01 0.  1.
          5    1    5    5  503    0  0.62854298001E+02  0.53635294939E+02 -0.36383223954E+03  0.37312651496E+03  0.47000000000E+01 0. -1.
         -5    1    5    5    0  503 -0.29569652379E+02 -0.13451528245E+02 -0.28081404423E+02  0.43196796505E+02  0.47000000000E+01 0. -1.
<mgrwt>
<rscale>  0 0.27522183E+03</rscale>
<asrwt>0</asrwt>
<pdfrwt beam="1">  1        2 0.45592215E-02 0.27522183E+03</pdfrwt>
<pdfrwt beam="2">  1       -2 0.98307885E-01 0.27522183E+03</pdfrwt>
<totfact> 0.15852724E+03</totfact>
</mgrwt>
</event>
<event>
 9    1  0.2098759E-002  0.2780751E+03  0.7818608E-02  0.1096745E+00
         -2   -1    0    0    0  501 -0.00000000000E+00  0.00000000000E+00  0.18900718373E+02  0.18900718373E+02  0.00000000000E+00 0.  1.
          2   -1    0    0  501    0  0.00000000000E+00 -0.00000000000E+00 -0.10227884329E+04  0.10227884329E+04  0.00000000000E+00 0.  1.
         36    2    1    2    0    0  0.00000000000E+00  0.71054273576E-14 -0.10038877145E+04  0.10416891512E+04  0.27807506990E+03 0.  0.
         25    2    3    3    0    0  0.33188466886E+02  0.50881575036E+02 -0.54548562381E+03  0.56303028192E+03  0.12553136487E+03 0.  0.
         25    2    3    3    0    0 -0.33188466886E+02 -0.50881575036E+02 -0.45840209068E+03  0.47865886931E+03  0.12365851131E+03 0.  0.
          5    1    4    4  502    0  0.51720239596E+02 -0.69015993487E+01 -0.42324981758E+03  0.42647990966E+03  0.47000000000E+01 0. -1.
         -5    1    4    4    0  502 -0.18531772711E+02  0.57783174384E+02 -0.12223580622E+03  0.13655037226E+03  0.47000000000E+01 0. -1.
          5    1    5    5  503    0 -0.18683791937E+02 -0.57639753620E+02 -0.82921271710E+02  0.10280784299E+03  0.47000000000E+01 0. -1.
         -5    1    5    5    0  503 -0.14504674949E+02  0.67581785848E+01 -0.37548081897E+03  0.37585102632E+03  0.47000000000E+01 0. -1.
<mgrwt>
<rscale>  0 0.27807507E+03</rscale>
<asrwt>0</asrwt>
<pdfrwt beam="1">  1        2 0.15735207E+00 0.27807507E+03</pdfrwt>
<pdfrwt beam="2">  1       -2 0.29078027E-02 0.27807507E+03</pdfrwt>
<totfact> 0.11261069E+04</totfact>
</mgrwt>
</event>
<event>
 9    1  0.2098759E-002  0.2706423E+03  0.7818608E-02  0.1100913E+00
          1   -1    0    0  501    0  0.00000000000E+00  0.00000000000E+00  0.25503793961E+02  0.25503793961E+02  0.00000000000E+00 0.  1.
         -1   -1    0    0    0  501 -0.00000000000E+00 -0.00000000000E+00 -0.71800364209E+03  0.71800364209E+03  0.00000000000E+00 0.  1.
         36    2    1    2    0    0 -0.71054273576E-14 -0.71054273576E-14 -0.69249984813E+03  0.74350743605E+03  0.27064232449E+03 0.  0.
         25    2    3    3    0    0  0.32940547298E+02 -0.34954834879E+02 -0.28763495073E+03  0.31750405198E+03  0.12557084856E+03 0.  0.
         25    2    3    3    0    0 -0.32940547298E+02  0.34954834879E+02 -0.40486489740E+03  0.42600338407E+03  0.12351671123E+03 0.  0.
          5    1    4    4  502    0 -0.41318085833E+02 -0.42198886658E+02 -0.11454765695E+03  0.12896195549E+03  0.47000000000E+01 0.  1.
         -5    1    4    4    0  502  0.74258633131E+02  0.72440517788E+01 -0.17308729378E+03  0.18854209649E+03  0.47000000000E+01 0.  1.
          5    1    5    5  503    0 -0.73752989803E+02 -0.10933907051E+01 -0.17983078673E+03  0.19442710939E+03  0.47000000000E+01 0. -1.
         -5    1    5    5    0  503  0.40812442505E+02  0.36048225584E+02 -0.22503411067E+03  0.23157627468E+03  0.47000000000E+01 0. -1.
<mgrwt>
<rscale>  0 0.27064232E+03</rscale>
<asrwt>0</asrwt>
<pdfrwt beam="1">  1        1 0.39236609E-02 0.27064232E+03</pdfrwt>
<pdfrwt beam="2">  1       -1 0.11046209E+00 0.27064232E+03</pdfrwt>
<totfact> 0.18745335E+03</totfact>
</mgrwt>
</event>
<event>
 9    1  0.2098759E-002  0.2750855E+03  0.7818608E-02  0.1098404E+00
         -1   -1    0    0    0  501 -0.00000000000E+00  0.00000000000E+00  0.25069028237E+02  0.25069028237E+02  0.00000000000E+00 0. -1.
          1   -1    0    0  501    0  0.00000000000E+00 -0.00000000000E+00 -0.75463653296E+03  0.75463653296E+03  0.00000000000E+00 0. -1.
         36    2    1    2    0    0  0.62172489379E-14  0.35527136788E-14 -0.72956750472E+03  0.77970556120E+03  0.27508547438E+03 0.  0.
         25    2    3    3    0    0 -0.32078743153E+01 -0.27047799199E+02 -0.51258225849E+03  0.52840069962E+03  0.12539877886E+03 0.  0.
         25    2    3    3    0    0  0.32078743153E+01  0.27047799199E+02 -0.21698524623E+03  0.25130486158E+03  0.12381301414E+03 0.  0.
          5    1    4    4  502    0 -0.43183228191E+02 -0.37271024676E+02 -0.44784766979E+03  0.45149036071E+03  0.47000000000E+01 0.  1.
         -5    1    4    4    0  502  0.39975353876E+02  0.10223225478E+02 -0.64734588694E+02  0.76910338902E+02  0.47000000000E+01 0.  1.
          5    1    5    5  503    0 -0.65402645880E+01  0.34673643871E+01 -0.22420300721E+03  0.22437441057E+03  0.47000000000E+01 0.  1.
         -5    1    5    5    0  503  0.97481389032E+01  0.23580434811E+02  0.72177609777E+01  0.26930451008E+02  0.47000000000E+01 0.  1.
<mgrwt>
<rscale>  0 0.27508547E+03</rscale>
<asrwt>0</asrwt>
<pdfrwt beam="1">  1        1 0.11609793E+00 0.27508547E+03</pdfrwt>
<pdfrwt beam="2">  1       -1 0.38567736E-02 0.27508547E+03</pdfrwt>
<totfact> 0.65287636E+03</totfact>
</mgrwt>
</event>
<event>
 9    1  0.2098759E-002  0.2753069E+03  0.7818608E-02  0.1098280E+00
         -2   -1    0    0    0  501 -0.00000000000E+00  0.00000000000E+00  0.22881128224E+03  0.22881128224E+03  0.00000000000E+00 0. -1.
          2   -1    0    0  501    0  0.00000000000E+00 -0.00000000000E+00 -0.82812659450E+02  0.82812659450E+02  0.00000000000E+00 0. -1.
         36    2    1    2    0    0  0.71054273576E-14 -0.35527136788E-14  0.14599862279E+03  0.31162394169E+03  0.27530688908E+03 0.  0.
         25    2    3    3    0    0 -0.12005451411E+02 -0.19553261675E+02  0.12901886683E+03  0.18313847618E+03  0.12793503255E+03 0.  0.
         25    2    3    3    0    0  0.12005451411E+02  0.19553261675E+02  0.16979755964E+02  0.12848546551E+03  0.12527466555E+03 0.  0.
          5    1    4    4  502    0  0.54576289442E+02 -0.12575325688E+02  0.88210724041E+02  0.10459412996E+03  0.47000000000E+01 0. -1.
         -5    1    4    4    0  502 -0.66581740853E+02 -0.69779359869E+01  0.40808142785E+02  0.78544346220E+02  0.47000000000E+01 0. -1.
          5    1    5    5  503    0  0.30541410933E+01  0.72722984967E+02  0.54011338339E+01  0.73138379576E+02  0.47000000000E+01 0.  1.
         -5    1    5    5    0  503  0.89513103176E+01 -0.53169723292E+02  0.11578622131E+02  0.55347085938E+02  0.47000000000E+01 0.  1.
<mgrwt>
<rscale>  0 0.27530689E+03</rscale>
<asrwt>0</asrwt>
<pdfrwt beam="1">  1        2 0.12740409E-01 0.27530689E+03</pdfrwt>
<pdfrwt beam="2">  1       -2 0.35201735E-01 0.27530689E+03</pdfrwt>
<totfact> 0.35904053E+03</totfact>
</mgrwt>
</event>
<event>
 9    1  0.2098759E-002  0.2749254E+03  0.7818608E-02  0.1098493E+00
          1   -1    0    0  501    0  0.00000000000E+00  0.00000000000E+00  0.35886629128E+03  0.35886629128E+03  0.00000000000E+00 0. -1.
         -1   -1    0    0    0  501 -0.00000000000E+00 -0.00000000000E+00 -0.52654674978E+02  0.52654674978E+02  0.00000000000E+00 0. -1.
         36    2    1    2    0    0  0.00000000000E+00 -0.35527136788E-14  0.30621161630E+03  0.41152096626E+03  0.27492535662E+03 0.  0.
         25    2    3    3    0    0  0.52831709788E+02 -0.13781743485E+02  0.18142552232E+03  0.22741011629E+03  0.12577366508E+03 0.  0.
         25    2    3    3    0    0 -0.52831709788E+02  0.13781743485E+02  0.12478609398E+03  0.18411084997E+03  0.12387134379E+03 0.  0.
          5    1    4    4  502    0 -0.33939027213E+02 -0.32312795976E+02  0.49231716158E+02  0.68130949118E+02  0.47000000000E+01 0.  1.
         -5    1    4    4    0  502  0.86770737001E+02  0.18531052491E+02  0.13219380616E+03  0.15927916717E+03  0.47000000000E+01 0.  1.
          5    1    5    5  503    0 -0.22573811652E+02 -0.47835505289E+02  0.95624649456E+02  0.10937996216E+03  0.47000000000E+01 0. -1.
         -5    1    5    5    0  503 -0.30257898136E+02  0.61617248774E+02  0.29161444527E+02  0.74730887811E+02  0.47000000000E+01 0. -1.
<mgrwt>
<rscale>  0 0.27492536E+03</rscale>
<asrwt>0</asrwt>
<pdfrwt beam="1">  1        1 0.55210197E-01 0.27492536E+03</pdfrwt>
<pdfrwt beam="2">  1       -1 0.81007194E-02 0.27492536E+03</pdfrwt>
<totfact> 0.58500234E+03</totfact>
</mgrwt>
</event>
<event>
 9    1  0.2098759E-002  0.2735430E+03  0.7818608E-02  0.1099269E+00
         -1   -1    0    0    0  501 -0.00000000000E+00  0.00000000000E+00  0.90890340378E+01  0.90890340378E+01  0.00000000000E+00 0. -1.
          1   -1    0    0  501    0  0.00000000000E+00 -0.00000000000E+00 -0.20581331084E+04  0.20581331084E+04  0.00000000000E+00 0. -1.
         36    2    1    2    0    0  0.00000000000E+00 -0.35527136788E-14 -0.20490440744E+04  0.20672221424E+04  0.27354299023E+03 0.  0.
         25    2    3    3    0    0  0.43252637298E+02  0.12729997302E+02 -0.74698458506E+03  0.75846475518E+03  0.12349077321E+03 0.  0.
         25    2    3    3    0    0 -0.43252637298E+02 -0.12729997302E+02 -0.13020594893E+04  0.13087573873E+04  0.12431468762E+03 0.  0.
          5    1    4    4  502    0 -0.33869488542E+02 -0.19918504244E+02 -0.13254737112E+03  0.13832853883E+03  0.47000000000E+01 0.  1.
         -5    1    4    4    0  502  0.77122125840E+02  0.32648501546E+02 -0.61443721394E+03  0.62013621635E+03  0.47000000000E+01 0.  1.
          5    1    5    5  503    0  0.23663505146E+02  0.36789318869E+02 -0.63215366081E+03  0.63368269373E+03  0.47000000000E+01 0.  1.
         -5    1    5    5    0  503 -0.66916142444E+02 -0.49519316171E+02 -0.66990582849E+03  0.67507469353E+03  0.47000000000E+01 0.  1.
<mgrwt>
<rscale>  0 0.27354299E+03</rscale>
<asrwt>0</asrwt>
<pdfrwt beam="1">  1        1 0.31663590E+00 0.27354299E+03</pdfrwt>
<pdfrwt beam="2">  1       -1 0.13983128E-02 0.27354299E+03</pdfrwt>
<totfact> 0.35753333E+03</totfact>
</mgrwt>
</event>
<event>
 9    1  0.2098759E-002  0.2747310E+03  0.7818608E-02  0.1098602E+00
          2   -1    0    0  501    0  0.00000000000E+00  0.00000000000E+00  0.74869938829E+03  0.74869938829E+03  0.00000000000E+00 0. -1.
         -2   -1    0    0    0  501 -0.00000000000E+00 -0.00000000000E+00 -0.25202750548E+02  0.25202750548E+02  0.00000000000E+00 0. -1.
         36    2    1    2    0    0  0.00000000000E+00  0.17763568394E-14  0.72349663774E+03  0.77390213884E+03  0.27473102423E+03 0.  0.
         25    2    3    3    0    0 -0.45762757250E+02 -0.17908512125E+01  0.47095012159E+03  0.48948852064E+03  0.12532979579E+03 0.  0.
         25    2    3    3    0    0  0.45762757250E+02  0.17908512125E+01  0.25254651615E+03  0.28441361820E+03  0.12253132782E+03 0.  0.
          5    1    4    4  502    0 -0.78927761953E+01 -0.60116097200E+02  0.16931534788E+03  0.17990558103E+03  0.47000000000E+01 0.  1.
         -5    1    4    4    0  502 -0.37869981054E+02  0.58325245987E+02  0.30163477371E+03  0.30958293960E+03  0.47000000000E+01 0.  1.
          5    1    5    5  503    0  0.16424415885E+02  0.78067076618E+01 -0.92016922145E+01  0.20915718044E+02  0.47000000000E+01 0. -1.
         -5    1    5    5    0  503  0.29338341364E+02 -0.60158564494E+01  0.26174820837E+03  0.26349790015E+03  0.47000000000E+01 0. -1.
<mgrwt>
<rscale>  0 0.27473102E+03</rscale>
<asrwt>0</asrwt>
<pdfrwt beam="1">  1        2 0.11518450E+00 0.27473102E+03</pdfrwt>
<pdfrwt beam="2">  1       -2 0.38773468E-02 0.27473102E+03</pdfrwt>
<totfact> 0.11074623E+04</totfact>
</mgrwt>
</event>
<event>
 9    1  0.2098759E-002  0.2758394E+03  0.7818608E-02  0.1097983E+00
         -4   -1    0    0    0  501 -0.00000000000E+00  0.00000000000E+00  0.81904701410E+03  0.81904701410E+03  0.00000000000E+00 0.  1.
          4   -1    0    0  501    0  0.00000000000E+00 -0.00000000000E+00 -0.23224354436E+02  0.23224354436E+02  0.00000000000E+00 0.  1.
         36    2    1    2    0    0 -0.17763568394E-14  0.00000000000E+00  0.79582265967E+03  0.84227136854E+03  0.27583936018E+03 0.  0.
         25    2    3    3    0    0 -0.97394064293E+01  0.21316969447E+02  0.23186704863E+03  0.26425790044E+03  0.12458186258E+03 0.  0.
         25    2    3    3    0    0  0.97394064293E+01 -0.21316969447E+02  0.56395561104E+03  0.57801346810E+03  0.12451654048E+03 0.  0.
          5    1    4    4  502    0 -0.15167437665E+02  0.54681820146E+02  0.22133371101E+03  0.22854070589E+03  0.47000000000E+01 0. -1.
         -5    1    4    4    0  502  0.54280312355E+01 -0.33364850699E+02  0.10533337615E+02  0.35717194551E+02  0.47000000000E+01 0. -1.
          5    1    5    5  503    0 -0.50840044397E+02 -0.60272609284E+01  0.38476576433E+03  0.38818529260E+03  0.47000000000E+01 0. -1.
         -5    1    5    5    0  503  0.60579450826E+02 -0.15289708519E+02  0.17918984671E+03  0.18982817550E+03  0.47000000000E+01 0. -1.
<mgrwt>
<rscale>  0 0.27583936E+03</rscale>
<asrwt>0</asrwt>
<pdfrwt beam="1">  1        4 0.35729782E-02 0.27583936E+03</pdfrwt>
<pdfrwt beam="2">  1       -4 0.12600721E+00 0.27583936E+03</pdfrwt>
<totfact> 0.37603666E+02</totfact>
</mgrwt>
</event>
<event>
 9    1  0.2098759E-002  0.2746651E+03  0.7818608E-02  0.1098639E+00
          2   -1    0    0  501    0  0.00000000000E+00  0.00000000000E+00  0.28700561430E+04  0.28700561430E+04  0.00000000000E+00 0.  1.
         -2   -1    0    0    0  501 -0.00000000000E+00 -0.00000000000E+00 -0.65713796212E+01  0.65713796212E+01  0.00000000000E+00 0.  1.
         36    2    1    2    0    0  0.00000000000E+00 -0.35527136788E-14  0.28634847634E+04  0.28766275227E+04  0.27466509389E+03 0.  0.
         25    2    3    3    0    0 -0.37181951618E+02 -0.17899895758E+02  0.13250297530E+04  0.13315478500E+04  0.12495169762E+03 0.  0.
         25    2    3    3    0    0  0.37181951618E+02  0.17899895758E+02  0.15384550104E+04  0.15450796727E+04  0.13683739241E+03 0.  0.
          5    1    4    4  502    0  0.13850020516E+02  0.20803657589E+02  0.63762176572E+02  0.68646342936E+02  0.47000000000E+01 0.  1.
         -5    1    4    4    0  502 -0.51031972134E+02 -0.38703553348E+02  0.12612675764E+04  0.12629015071E+04  0.47000000000E+01 0.  1.
          5    1    5    5  503    0 -0.15387799150E+02 -0.46055810834E+02  0.30859678676E+03  0.31242917417E+03  0.47000000000E+01 0.  1.
         -5    1    5    5    0  503  0.52569750768E+02  0.63955706592E+02  0.12298582237E+04  0.12326504985E+04  0.47000000000E+01 0.  1.
<mgrwt>
<rscale>  0 0.27466509E+03</rscale>
<asrwt>0</asrwt>
<pdfrwt beam="1">  1        2 0.44154610E+00 0.27466509E+03</pdfrwt>
<pdfrwt beam="2">  1       -2 0.10109838E-02 0.27466509E+03</pdfrwt>
<totfact> 0.52104408E+03</totfact>
</mgrwt>
</event>
<event>
 9    1  0.2098759E-002  0.2746057E+03  0.7818608E-02  0.1098672E+00
          2   -1    0    0  501    0  0.00000000000E+00  0.00000000000E+00  0.25017021926E+04  0.25017021926E+04  0.00000000000E+00 0. -1.
         -2   -1    0    0    0  501 -0.00000000000E+00 -0.00000000000E+00 -0.75357004080E+01  0.75357004080E+01  0.00000000000E+00 0. -1.
         36    2    1    2    0    0  0.00000000000E+00  0.71054273576E-14  0.24941664922E+04  0.25092378930E+04  0.27460574090E+03 0.  0.
         25    2    3    3    0    0 -0.21082276382E+02  0.42558727152E+02  0.14973554673E+04  0.15032863698E+04  0.12466277123E+03 0.  0.
         25    2    3    3    0    0  0.21082276382E+02 -0.42558727152E+02  0.99681102489E+03  0.10059515232E+04  0.12669072606E+03 0.  0.
          5    1    4    4  502    0  0.36254609752E+02 -0.14862428805E+02  0.83971794836E+03  0.84064475929E+03  0.47000000000E+01 0.  1.
         -5    1    4    4    0  502 -0.57336886134E+02  0.57421155957E+02  0.65763751897E+03  0.66264161054E+03  0.47000000000E+01 0.  1.
          5    1    5    5  503    0  0.67425296409E+02 -0.41180017602E+02  0.79002296390E+03  0.79397754247E+03  0.47000000000E+01 0. -1.
         -5    1    5    5    0  503 -0.46343020027E+02 -0.13787095499E+01  0.20678806098E+03  0.21197398074E+03  0.47000000000E+01 0. -1.
<mgrwt>
<rscale>  0 0.27460574E+03</rscale>
<asrwt>0</asrwt>
<pdfrwt beam="1">  1        2 0.38487660E+00 0.27460574E+03</pdfrwt>
<pdfrwt beam="2">  1       -2 0.11593405E-02 0.27460574E+03</pdfrwt>
<totfact> 0.68802688E+03</totfact>
</mgrwt>
</event>
<event>
 9    1  0.2098759E-002  0.2755629E+03  0.7818608E-02  0.1098137E+00
          1   -1    0    0  501    0  0.00000000000E+00  0.00000000000E+00  0.76735212971E+03  0.76735212971E+03  0.00000000000E+00 0. -1.
         -1   -1    0    0    0  501 -0.00000000000E+00 -0.00000000000E+00 -0.24739257989E+02  0.24739257989E+02  0.00000000000E+00 0. -1.
         36    2    1    2    0    0  0.00000000000E+00  0.35527136788E-14  0.74261287172E+03  0.79209138770E+03  0.27556285893E+03 0.  0.
         25    2    3    3    0    0 -0.50087333452E+02  0.18237378140E+02  0.35817471773E+03  0.38303494352E+03  0.12484108540E+03 0.  0.
         25    2    3    3    0    0  0.50087333452E+02 -0.18237378140E+02  0.38443815399E+03  0.40905644418E+03  0.12920192470E+03 0.  0.
          5    1    4    4  502    0  0.27770507794E+02  0.44830027337E+02  0.15454365558E+03  0.16336083966E+03  0.47000000000E+01 0.  1.
         -5    1    4    4    0  502 -0.77857841246E+02 -0.26592649197E+02  0.20363106215E+03  0.21967410386E+03  0.47000000000E+01 0.  1.
          5    1    5    5  503    0  0.27862034957E+02 -0.40694424528E+02  0.37117897691E+03  0.37447062913E+03  0.47000000000E+01 0. -1.
         -5    1    5    5    0  503  0.22225298495E+02  0.22457046388E+02  0.13259177077E+02  0.34585815047E+02  0.47000000000E+01 0. -1.
<mgrwt>
<rscale>  0 0.27556286E+03</rscale>
<asrwt>0</asrwt>
<pdfrwt beam="1">  1        1 0.11805416E+00 0.27556286E+03</pdfrwt>
<pdfrwt beam="2">  1       -1 0.38060403E-02 0.27556286E+03</pdfrwt>
<totfact> 0.64932047E+03</totfact>
</mgrwt>
</event>
<event>
 9    1  0.2098759E-002  0.2739776E+03  0.7818608E-02  0.1099024E+00
          1   -1    0    0  501    0  0.00000000000E+00  0.00000000000E+00  0.33870862033E+02  0.33870862033E+02  0.00000000000E+00 0. -1.
         -1   -1    0    0    0  501 -0.00000000000E+00 -0.00000000000E+00 -0.55404349778E+03  0.55404349778E+03  0.00000000000E+00 0. -1.
         36    2    1    2    0    0  0.00000000000E+00  0.00000000000E+00 -0.52017263574E+03  0.58791435981E+03  0.27397759670E+03 0.  0.
         25    2    3    3    0    0 -0.33284141189E+02  0.39823711783E+02 -0.30442703333E+03  0.33272225277E+03  0.12383261602E+03 0.  0.
         25    2    3    3    0    0  0.33284141189E+02 -0.39823711783E+02 -0.21574560241E+03  0.25519210704E+03  0.12602810980E+03 0.  0.
          5    1    4    4  502    0 -0.10306249031E+02 -0.10132189383E+02 -0.26369100348E+03  0.26412859623E+03  0.47000000000E+01 0. -1.
         -5    1    4    4    0  502 -0.22977892158E+02  0.49955901166E+02 -0.40736029849E+02  0.68593656538E+02  0.47000000000E+01 0. -1.
          5    1    5    5  503    0  0.51164746292E+02  0.32381444599E+02 -0.11260506184E+03  0.12793896658E+03  0.47000000000E+01 0. -1.
         -5    1    5    5    0  503 -0.17880605104E+02 -0.72205156382E+02 -0.10314054057E+03  0.12725314046E+03  0.47000000000E+01 0. -1.
<mgrwt>
<rscale>  0 0.27397760E+03</rscale>
<asrwt>0</asrwt>
<pdfrwt beam="1">  1        1 0.52109021E-02 0.27397760E+03</pdfrwt>
<pdfrwt beam="2">  1       -1 0.85237457E-01 0.27397760E+03</pdfrwt>
<totfact> 0.22393680E+03</totfact>
</mgrwt>
</event>
<event>
 9    1  0.2098759E-002  0.2755218E+03  0.7818608E-02  0.1098160E+00
          1   -1    0    0  501    0  0.00000000000E+00  0.00000000000E+00  0.17371078337E+04  0.17371078337E+04  0.00000000000E+00 0. -1.
         -1   -1    0    0    0  501 -0.00000000000E+00 -0.00000000000E+00 -0.10925090123E+02  0.10925090123E+02  0.00000000000E+00 0. -1.
         36    2    1    2    0    0 -0.71054273576E-14 -0.17763568394E-14  0.17261827435E+04  0.17480329238E+04  0.27552175693E+03 0.  0.
         25    2    3    3    0    0 -0.49722125426E+02 -0.10230793438E+02  0.65753516066E+03  0.67137466454E+03  0.12575569092E+03 0.  0.
         25    2    3    3    0    0  0.49722125426E+02  0.10230793438E+02  0.10686475829E+04  0.10766582592E+04  0.12086518069E+03 0.  0.
          5    1    4    4  502    0 -0.82069995552E+02  0.22926386278E+02  0.34545434596E+03  0.35583970899E+03  0.47000000000E+01 0. -1.
         -5    1    4    4    0  502  0.32347870126E+02 -0.33157179716E+02  0.31208081470E+03  0.31553495555E+03  0.47000000000E+01 0. -1.
          5    1    5    5  503    0 -0.39022748665E+02 -0.48466061212E+01  0.25932790080E+03  0.26233435657E+03  0.47000000000E+01 0. -1.
         -5    1    5    5    0  503  0.88744874091E+02  0.15077399560E+02  0.80931968208E+03  0.81432390266E+03  0.47000000000E+01 0. -1.
<mgrwt>
<rscale>  0 0.27552176E+03</rscale>
<asrwt>0</asrwt>
<pdfrwt beam="1">  1        1 0.26724714E+00 0.27552176E+03</pdfrwt>
<pdfrwt beam="2">  1       -1 0.16807845E-02 0.27552176E+03</pdfrwt>
<totfact> 0.44209007E+03</totfact>
</mgrwt>
</event>
<event>
 9    1  0.2098759E-002  0.2753460E+03  0.7818608E-02  0.1098258E+00
          2   -1    0    0  501    0  0.00000000000E+00  0.00000000000E+00  0.10993643052E+02  0.10993643052E+02  0.00000000000E+00 0.  1.
         -2   -1    0    0    0  501 -0.00000000000E+00 -0.00000000000E+00 -0.17240737970E+04  0.17240737970E+04  0.00000000000E+00 0.  1.
         36    2    1    2    0    0  0.00000000000E+00  0.14210854715E-13 -0.17130801539E+04  0.17350674400E+04  0.27534597813E+03 0.  0.
         25    2    3    3    0    0  0.39373182246E+02 -0.52570161617E+02 -0.91329336550E+03  0.92361545474E+03  0.12102424296E+03 0.  0.
         25    2    3    3    0    0 -0.39373182246E+02  0.52570161617E+02 -0.79978678841E+03  0.81145198528E+03  0.12033930416E+03 0.  0.
          5    1    4    4  502    0  0.79223548158E+02 -0.52873876132E+02 -0.71232561300E+03  0.71868065669E+03  0.47000000000E+01 0. -1.
         -5    1    4    4    0  502 -0.39850365912E+02  0.30371451497E+00 -0.20096775250E+03  0.20493479805E+03  0.47000000000E+01 0. -1.
          5    1    5    5  503    0  0.32525325439E+02 -0.30102727508E+01 -0.40369625346E+03  0.40504285402E+03  0.47000000000E+01 0.  1.
         -5    1    5    5    0  503 -0.71898507685E+02  0.55580434368E+02 -0.39609053495E+03  0.40640913126E+03  0.47000000000E+01 0.  1.
<mgrwt>
<rscale>  0 0.27534598E+03</rscale>
<asrwt>0</asrwt>
<pdfrwt beam="1">  1        2 0.16913300E-02 0.27534598E+03</pdfrwt>
<pdfrwt beam="2">  1       -2 0.26524208E+00 0.27534598E+03</pdfrwt>
<totfact> 0.40365944E+02</totfact>
</mgrwt>
</event>
<event>
 9    1  0.2098759E-002  0.2757174E+03  0.7818608E-02  0.1098051E+00
         -2   -1    0    0    0  501 -0.00000000000E+00  0.00000000000E+00  0.19175240860E+02  0.19175240860E+02  0.00000000000E+00 0. -1.
          2   -1    0    0  501    0  0.00000000000E+00 -0.00000000000E+00 -0.99112300998E+03  0.99112300998E+03  0.00000000000E+00 0. -1.
         36    2    1    2    0    0  0.71054273576E-14  0.00000000000E+00 -0.97194776912E+03  0.10102982508E+04  0.27571740923E+03 0.  0.
         25    2    3    3    0    0  0.56803780136E+01  0.61010894967E+02 -0.55905996300E+03  0.57391735817E+03  0.11436125126E+03 0.  0.
         25    2    3    3    0    0 -0.56803780136E+01 -0.61010894967E+02 -0.41288780612E+03  0.43638089267E+03  0.12726879837E+03 0.  0.
          5    1    4    4  502    0 -0.50352769255E+02  0.32071208435E+02 -0.36312026757E+03  0.36802497538E+03  0.47000000000E+01 0.  1.
         -5    1    4    4    0  502  0.56033147269E+02  0.28939686532E+02 -0.19593969543E+03  0.20589238280E+03  0.47000000000E+01 0.  1.
          5    1    5    5  503    0 -0.24724650380E+02 -0.51014297465E+02 -0.59533291913E+02  0.82341178813E+02  0.47000000000E+01 0.  1.
         -5    1    5    5    0  503  0.19044272367E+02 -0.99965975019E+01 -0.35335451421E+03  0.35403971385E+03  0.47000000000E+01 0.  1.
<mgrwt>
<rscale>  0 0.27571741E+03</rscale>
<asrwt>0</asrwt>
<pdfrwt beam="1">  1        2 0.15248042E+00 0.27571741E+03</pdfrwt>
<pdfrwt beam="2">  1       -2 0.29500378E-02 0.27571741E+03</pdfrwt>
<totfact> 0.11521020E+04</totfact>
</mgrwt>
</event>
<event>
 9    1  0.2098759E-002  0.2757360E+03  0.7818608E-02  0.1098041E+00
          2   -1    0    0  501    0  0.00000000000E+00  0.00000000000E+00  0.42365823500E+03  0.42365823500E+03  0.00000000000E+00 0. -1.
         -2   -1    0    0    0  501 -0.00000000000E+00 -0.00000000000E+00 -0.44865380401E+02  0.44865380401E+02  0.00000000000E+00 0. -1.
         36    2    1    2    0    0  0.71054273576E-14  0.71054273576E-14  0.37879285459E+03  0.46852361540E+03  0.27573601776E+03 0.  0.
         25    2    3    3    0    0  0.29066863371E+02 -0.46109549506E+02  0.14385929116E+03  0.19968185103E+03  0.12730425317E+03 0.  0.
         25    2    3    3    0    0 -0.29066863371E+02  0.46109549506E+02  0.23493356344E+03  0.26884176437E+03  0.11879032763E+03 0.  0.
          5    1    4    4  502    0  0.39915116050E+01 -0.34377127648E+02  0.16234731792E+03  0.16606161720E+03  0.47000000000E+01 0.  1.
         -5    1    4    4    0  502  0.25075351766E+02 -0.11732421857E+02 -0.18488026767E+02  0.33620233827E+02  0.47000000000E+01 0.  1.
          5    1    5    5  503    0 -0.13885819387E+01  0.59077226138E+02  0.23001157001E+03  0.23752780711E+03  0.47000000000E+01 0. -1.
         -5    1    5    5    0  503 -0.27678281432E+02 -0.12967676632E+02  0.49219934243E+01  0.31313957264E+02  0.47000000000E+01 0. -1.
<mgrwt>
<rscale>  0 0.27573602E+03</rscale>
<asrwt>0</asrwt>
<pdfrwt beam="1">  1        2 0.65178187E-01 0.27573602E+03</pdfrwt>
<pdfrwt beam="2">  1       -2 0.69023665E-02 0.27573602E+03</pdfrwt>
<totfact> 0.88684426E+03</totfact>
</mgrwt>
</event>
<event>
 9    1  0.2098759E-002  0.2765374E+03  0.7818608E-02  0.1097595E+00
          1   -1    0    0  501    0  0.00000000000E+00  0.00000000000E+00  0.32075786523E+02  0.32075786523E+02  0.00000000000E+00 0.  1.
         -1   -1    0    0    0  501 -0.00000000000E+00 -0.00000000000E+00 -0.59603327696E+03  0.59603327696E+03  0.00000000000E+00 0.  1.
         36    2    1    2    0    0  0.00000000000E+00  0.71054273576E-14 -0.56395749043E+03  0.62810906348E+03  0.27653741991E+03 0.  0.
         25    2    3    3    0    0  0.46010615677E+02  0.38285487318E+02 -0.32478934997E+03  0.35178032989E+03  0.12115495594E+03 0.  0.
         25    2    3    3    0    0 -0.46010615677E+02 -0.38285487318E+02 -0.23916814046E+03  0.27632873359E+03  0.12479348661E+03 0.  0.
          5    1    4    4  502    0 -0.38765519399E+02  0.23880027265E+02 -0.78520500420E+02  0.90887733950E+02  0.47000000000E+01 0.  1.
         -5    1    4    4    0  502  0.84776135075E+02  0.14405460054E+02 -0.24626884955E+03  0.26089259594E+03  0.47000000000E+01 0.  1.
          5    1    5    5  503    0  0.39689008415E+02  0.80214863394E+01 -0.75805969140E+02  0.86070881193E+02  0.47000000000E+01 0.  1.
         -5    1    5    5    0  503 -0.85699624091E+02 -0.46306973658E+02 -0.16336217132E+03  0.19025785239E+03  0.47000000000E+01 0.  1.
<mgrwt>
<rscale>  0 0.27653742E+03</rscale>
<asrwt>0</asrwt>
<pdfrwt beam="1">  1        1 0.49347365E-02 0.27653742E+03</pdfrwt>
<pdfrwt beam="2">  1       -1 0.91697426E-01 0.27653742E+03</pdfrwt>
<totfact> 0.20661308E+03</totfact>
</mgrwt>
</event>
<event>
 9    1  0.2098759E-002  0.2754158E+03  0.7818608E-02  0.1098219E+00
         -2   -1    0    0    0  501 -0.00000000000E+00  0.00000000000E+00  0.75065317413E+01  0.75065317413E+01  0.00000000000E+00 0. -1.
          2   -1    0    0  501    0  0.00000000000E+00 -0.00000000000E+00 -0.25262628394E+04  0.25262628394E+04  0.00000000000E+00 0. -1.
         36    2    1    2    0    0  0.00000000000E+00  0.00000000000E+00 -0.25187563077E+04  0.25337693712E+04  0.27541584697E+03 0.  0.
         25    2    3    3    0    0  0.80661257187E+00  0.38733962733E+02 -0.82221322182E+03  0.83191409049E+03  0.12060473178E+03 0.  0.
         25    2    3    3    0    0 -0.80661257187E+00 -0.38733962733E+02 -0.16965430859E+04  0.17018552807E+04  0.12865451286E+03 0.  0.
          5    1    4    4  502    0  0.49770416864E+02  0.16620108050E+02 -0.63232325286E+03  0.63451407273E+03  0.47000000000E+01 0.  1.
         -5    1    4    4    0  502 -0.48963804292E+02  0.22113854683E+02 -0.18988996896E+03  0.19740001776E+03  0.47000000000E+01 0.  1.
          5    1    5    5  503    0  0.55530137442E+02  0.42018041486E+01 -0.47995411150E+03  0.48319694791E+03  0.47000000000E+01 0.  1.
         -5    1    5    5    0  503 -0.56336750014E+02 -0.42935766882E+02 -0.12165889744E+04  0.12186583328E+04  0.47000000000E+01 0.  1.
<mgrwt>
<rscale>  0 0.27541585E+03</rscale>
<asrwt>0</asrwt>
<pdfrwt beam="1">  1        2 0.38865579E+00 0.27541585E+03</pdfrwt>
<pdfrwt beam="2">  1       -2 0.11548511E-02 0.27541585E+03</pdfrwt>
<totfact> 0.67075695E+03</totfact>
</mgrwt>
</event>
<event>
 9    1  0.2098759E-002  0.2742588E+03  0.7818608E-02  0.1098867E+00
          1   -1    0    0  501    0  0.00000000000E+00  0.00000000000E+00  0.34237741580E+03  0.34237741580E+03  0.00000000000E+00 0.  1.
         -1   -1    0    0    0  501 -0.00000000000E+00 -0.00000000000E+00 -0.54923235021E+02  0.54923235021E+02  0.00000000000E+00 0.  1.
         36    2    1    2    0    0 -0.35527136788E-14  0.00000000000E+00  0.28745418078E+03  0.39730065082E+03  0.27425882136E+03 0.  0.
         25    2    3    3    0    0  0.74138838166E+01 -0.19674325710E+02  0.74517950011E+02  0.14687436246E+03  0.12480828782E+03 0.  0.
         25    2    3    3    0    0 -0.74138838166E+01  0.19674325710E+02  0.21293623077E+03  0.25042628836E+03  0.13011319212E+03 0.  0.
          5    1    4    4  502    0  0.32605446498E+02  0.29715469258E+02  0.79467305028E+02  0.91012454219E+02  0.47000000000E+01 0.  1.
         -5    1    4    4    0  502 -0.25191562681E+02 -0.49389794968E+02 -0.49493550171E+01  0.55861908242E+02  0.47000000000E+01 0.  1.
          5    1    5    5  503    0  0.42137034913E+02 -0.30326761442E+02  0.47293906943E+02  0.70384982807E+02  0.47000000000E+01 0.  1.
         -5    1    5    5    0  503 -0.49550918730E+02  0.50001087152E+02  0.16564232383E+03  0.18004130556E+03  0.47000000000E+01 0.  1.
<mgrwt>
<rscale>  0 0.27425882E+03</rscale>
<asrwt>0</asrwt>
<pdfrwt beam="1">  1        1 0.52673447E-01 0.27425882E+03</pdfrwt>
<pdfrwt beam="2">  1       -1 0.84497287E-02 0.27425882E+03</pdfrwt>
<totfact> 0.58211041E+03</totfact>
</mgrwt>
</event>
<event>
 9    1  0.2098759E-002  0.2752625E+03  0.7818608E-02  0.1098305E+00
         -2   -1    0    0    0  501 -0.00000000000E+00  0.00000000000E+00  0.38871149294E+02  0.38871149294E+02  0.00000000000E+00 0. -1.
          2   -1    0    0  501    0  0.00000000000E+00 -0.00000000000E+00 -0.48731146911E+03  0.48731146911E+03  0.00000000000E+00 0. -1.
         36    2    1    2    0    0  0.00000000000E+00 -0.17763568394E-14 -0.44844031982E+03  0.52618261841E+03  0.27526247015E+03 0.  0.
         25    2    3    3    0    0  0.53247478667E+02 -0.14872473656E+02 -0.20867093434E+03  0.24876792111E+03  0.12363428035E+03 0.  0.
         25    2    3    3    0    0 -0.53247478667E+02  0.14872473656E+02 -0.23976938548E+03  0.27741469730E+03  0.12811351064E+03 0.  0.
          5    1    4    4  502    0  0.92639817300E+02 -0.20175989897E+02 -0.13691941136E+03  0.16660798757E+03  0.47000000000E+01 0. -1.
         -5    1    4    4    0  502 -0.39392338633E+02  0.53035162407E+01 -0.71751522986E+02  0.82159933534E+02  0.47000000000E+01 0. -1.
          5    1    5    5  503    0 -0.83432626365E+02 -0.49127390638E+01 -0.22129490556E+03  0.23659810518E+03  0.47000000000E+01 0.  1.
         -5    1    5    5    0  503  0.30185147698E+02  0.19785212720E+02 -0.18474479915E+02  0.40816592117E+02  0.47000000000E+01 0.  1.
<mgrwt>
<rscale>  0 0.27526247E+03</rscale>
<asrwt>0</asrwt>
<pdfrwt beam="1">  1        2 0.74970996E-01 0.27526247E+03</pdfrwt>
<pdfrwt beam="2">  1       -2 0.59801768E-02 0.27526247E+03</pdfrwt>
<totfact> 0.94781297E+03</totfact>
</mgrwt>
</event>
<event>
 9    1  0.2098759E-002  0.2748480E+03  0.7818608E-02  0.1098537E+00
         -2   -1    0    0    0  501 -0.00000000000E+00  0.00000000000E+00  0.10763584092E+02  0.10763584092E+02  0.00000000000E+00 0.  1.
          2   -1    0    0  501    0  0.00000000000E+00 -0.00000000000E+00 -0.17545603207E+04  0.17545603207E+04  0.00000000000E+00 0.  1.
         36    2    1    2    0    0  0.00000000000E+00  0.00000000000E+00 -0.17437967366E+04  0.17653239048E+04  0.27484801295E+03 0.  0.
         25    2    3    3    0    0 -0.80217025861E+01 -0.38760212395E+02 -0.76340240728E+03  0.77712320172E+03  0.13989472268E+03 0.  0.
         25    2    3    3    0    0  0.80217025861E+01  0.38760212395E+02 -0.98039432934E+03  0.98820070308E+03  0.11747717563E+03 0.  0.
          5    1    4    4  502    0  0.34296664360E+02 -0.74937243616E+02 -0.56520595714E+03  0.57120199199E+03  0.47000000000E+01 0.  1.
         -5    1    4    4    0  502 -0.42318366946E+02  0.36177031220E+02 -0.19819645013E+03  0.20592120972E+03  0.47000000000E+01 0.  1.
          5    1    5    5  503    0 -0.12800867589E+02  0.77206951589E+02 -0.70033876484E+03  0.70471359511E+03  0.47000000000E+01 0. -1.
         -5    1    5    5    0  503  0.20822570175E+02 -0.38446739194E+02 -0.28005556449E+03  0.28348710797E+03  0.47000000000E+01 0. -1.
<mgrwt>
<rscale>  0 0.27484801E+03</rscale>
<asrwt>0</asrwt>
<pdfrwt beam="1">  1        2 0.26993209E+00 0.27484801E+03</pdfrwt>
<pdfrwt beam="2">  1       -2 0.16559377E-02 0.27484801E+03</pdfrwt>
<totfact> 0.10204569E+04</totfact>
</mgrwt>
</event>
<event>
 9    1  0.2098759E-002  0.2752172E+03  0.7818608E-02  0.1098330E+00
          2   -1    0    0  501    0  0.00000000000E+00  0.00000000000E+00  0.39404744313E+03  0.39404744313E+03  0.00000000000E+00 0.  1.
         -2   -1    0    0    0  501 -0.00000000000E+00 -0.00000000000E+00 -0.48055448167E+02  0.48055448167E+02  0.00000000000E+00 0.  1.
         36    2    1    2    0    0 -0.17763568394E-14  0.71054273576E-14  0.34599199496E+03  0.44210289130E+03  0.27521719771E+03 0.  0.
         25    2    3    3    0    0  0.67962889791E+01  0.26615800389E+02  0.21726858602E+03  0.25206715194E+03  0.12481033708E+03 0.  0.
         25    2    3    3    0    0 -0.67962889791E+01 -0.26615800389E+02  0.12872340894E+03  0.19003573935E+03  0.13707397947E+03 0.  0.
          5    1    4    4  502    0 -0.21068893054E+02  0.85052057120E+00  0.21242440439E+03  0.21352011432E+03  0.47000000000E+01 0.  1.
         -5    1    4    4    0  502  0.27865182033E+02  0.25765279817E+02  0.48441816336E+01  0.38547037623E+02  0.47000000000E+01 0.  1.
          5    1    5    5  503    0 -0.66719411255E+01  0.43970353784E+02  0.18343170585E+01  0.44758926812E+02  0.47000000000E+01 0.  1.
         -5    1    5    5    0  503 -0.12434785359E+00 -0.70586154173E+02  0.12688909188E+03  0.14527681254E+03  0.47000000000E+01 0.  1.
<mgrwt>
<rscale>  0 0.27521720E+03</rscale>
<asrwt>0</asrwt>
<pdfrwt beam="1">  1        2 0.60622681E-01 0.27521720E+03</pdfrwt>
<pdfrwt beam="2">  1       -2 0.73931461E-02 0.27521720E+03</pdfrwt>
<totfact> 0.86264822E+03</totfact>
</mgrwt>
</event>
<event>
 9    1  0.2098759E-002  0.2748811E+03  0.7818608E-02  0.1098518E+00
         -1   -1    0    0    0  501 -0.00000000000E+00  0.00000000000E+00  0.15324407783E+02  0.15324407783E+02  0.00000000000E+00 0.  1.
          1   -1    0    0  501    0  0.00000000000E+00 -0.00000000000E+00 -0.12326677923E+04  0.12326677923E+04  0.00000000000E+00 0.  1.
         36    2    1    2    0    0  0.53290705182E-14 -0.71054273576E-14 -0.12173433845E+04  0.12479922001E+04  0.27488109364E+03 0.  0.
         25    2    3    3    0    0 -0.78622186212E+01 -0.27145447586E+02 -0.39746176949E+03  0.41792096721E+03  0.12602930939E+03 0.  0.
         25    2    3    3    0    0  0.78622186212E+01  0.27145447586E+02 -0.81988161500E+03  0.83007123285E+03  0.12654524554E+03 0.  0.
          5    1    4    4  502    0  0.32611568503E+02  0.13039748634E+01 -0.23065010853E+02  0.40240520329E+02  0.47000000000E+01 0. -1.
         -5    1    4    4    0  502 -0.40473787125E+02 -0.28449422450E+02 -0.37439675863E+03  0.37768044688E+03  0.47000000000E+01 0. -1.
          5    1    5    5  503    0  0.20446457492E+02 -0.21391419665E+02 -0.48238147645E+02  0.56786084101E+02  0.47000000000E+01 0. -1.
         -5    1    5    5    0  503 -0.12584238871E+02  0.48536867252E+02 -0.77164346736E+03  0.77328514874E+03  0.47000000000E+01 0. -1.
<mgrwt>
<rscale>  0 0.27488109E+03</rscale>
<asrwt>0</asrwt>
<pdfrwt beam="1">  1        1 0.18964123E+00 0.27488109E+03</pdfrwt>
<pdfrwt beam="2">  1       -1 0.23576008E-02 0.27488109E+03</pdfrwt>
<totfact> 0.58483795E+03</totfact>
</mgrwt>
</event>
<event>
 9    1  0.2098759E-002  0.2757580E+03  0.7818608E-02  0.1098029E+00
          1   -1    0    0  501    0  0.00000000000E+00  0.00000000000E+00  0.37638374420E+03  0.37638374420E+03  0.00000000000E+00 0. -1.
         -1   -1    0    0    0  501 -0.00000000000E+00 -0.00000000000E+00 -0.50508621475E+02  0.50508621475E+02  0.00000000000E+00 0. -1.
         36    2    1    2    0    0  0.71054273576E-14  0.17763568394E-14  0.32587512273E+03  0.42689236568E+03  0.27575803934E+03 0.  0.
         25    2    3    3    0    0 -0.33283065726E+02  0.14983184270E+02  0.22804348357E+03  0.26422985397E+03  0.12837962087E+03 0.  0.
         25    2    3    3    0    0  0.33283065726E+02 -0.14983184270E+02  0.97831639159E+02  0.16266251171E+03  0.12472291217E+03 0.  0.
          5    1    4    4  502    0 -0.28318959127E+02  0.18314102139E+02 -0.19538407254E+01  0.34106850878E+02  0.47000000000E+01 0. -1.
         -5    1    4    4    0  502 -0.49641065990E+01 -0.33309178695E+01  0.22999732429E+03  0.23012300309E+03  0.47000000000E+01 0. -1.
          5    1    5    5  503    0  0.45374277713E+02  0.29460109359E+02  0.10263586525E+03  0.11611603661E+03  0.47000000000E+01 0. -1.
         -5    1    5    5    0  503 -0.12091211987E+02 -0.44443293629E+02 -0.48042260959E+01  0.46546475100E+02  0.47000000000E+01 0. -1.
<mgrwt>
<rscale>  0 0.27575804E+03</rscale>
<asrwt>0</asrwt>
<pdfrwt beam="1">  1        1 0.57905190E-01 0.27575804E+03</pdfrwt>
<pdfrwt beam="2">  1       -1 0.77705574E-02 0.27575804E+03</pdfrwt>
<totfact> 0.58673909E+03</totfact>
</mgrwt>
</event>
<event>
 9    1  0.2098759E-002  0.2745224E+03  0.7818608E-02  0.1098719E+00
         -2   -1    0    0    0  501 -0.00000000000E+00  0.00000000000E+00  0.15500393560E+02  0.15500393560E+02  0.00000000000E+00 0.  1.
          2   -1    0    0  501    0  0.00000000000E+00 -0.00000000000E+00 -0.12154939265E+04  0.12154939265E+04  0.00000000000E+00 0.  1.
         36    2    1    2    0    0 -0.71054273576E-14  0.00000000000E+00 -0.11999935329E+04  0.12309943201E+04  0.27452237964E+03 0.  0.
         25    2    3    3    0    0  0.31669932130E+02  0.76155411277E+01 -0.80247470099E+03  0.81274638258E+03  0.12461964371E+03 0.  0.
         25    2    3    3    0    0 -0.31669932130E+02 -0.76155411277E+01 -0.39751883196E+03  0.41824793749E+03  0.12589334528E+03 0.  0.
          5    1    4    4  502    0  0.66531294469E+02  0.90348757795E+01 -0.24253211249E+03  0.25169814802E+03  0.47000000000E+01 0. -1.
         -5    1    4    4    0  502 -0.34861362339E+02 -0.14193346518E+01 -0.55994258849E+03  0.56104823456E+03  0.47000000000E+01 0. -1.
          5    1    5    5  503    0 -0.33291559264E+02 -0.20907725821E+02 -0.28085706550E+02  0.48542330287E+02  0.47000000000E+01 0.  1.
         -5    1    5    5    0  503  0.16216271340E+01  0.13292184693E+02 -0.36943312541E+03  0.36970560721E+03  0.47000000000E+01 0.  1.
<mgrwt>
<rscale>  0 0.27452238E+03</rscale>
<asrwt>0</asrwt>
<pdfrwt beam="1">  1        2 0.18699904E+00 0.27452238E+03</pdfrwt>
<pdfrwt beam="2">  1       -2 0.23846762E-02 0.27452238E+03</pdfrwt>
<totfact> 0.11654771E+04</totfact>
</mgrwt>
</event>
<event>
 9    1  0.2098759E-002  0.2744569E+03  0.7818608E-02  0.1098756E+00
          1   -1    0    0  501    0  0.00000000000E+00  0.00000000000E+00  0.36461365991E+03  0.36461365991E+03  0.00000000000E+00 0. -1.
         -1   -1    0    0    0  501 -0.00000000000E+00 -0.00000000000E+00 -0.51648240559E+02  0.51648240559E+02  0.00000000000E+00 0. -1.
         36    2    1    2    0    0  0.00000000000E+00  0.71054273576E-14  0.31296541935E+03  0.41626190047E+03  0.27445694758E+03 0.  0.
         25    2    3    3    0    0 -0.43387575009E+02 -0.28893543439E+02  0.12465259781E+03  0.18167934896E+03  0.12145697666E+03 0.  0.
         25    2    3    3    0    0  0.43387575009E+02  0.28893543439E+02  0.18831282154E+03  0.23458255151E+03  0.12980730410E+03 0.  0.
          5    1    4    4  502    0  0.12713511652E+02 -0.64157507786E+02  0.66486594470E+02  0.93382955769E+02  0.47000000000E+01 0. -1.
         -5    1    4    4    0  502 -0.56101086661E+02  0.35263964347E+02  0.58166003342E+02  0.88296393192E+02  0.47000000000E+01 0. -1.
          5    1    5    5  503    0 -0.28326480590E+02  0.21393687313E+02  0.32991785735E+01  0.35959059203E+02  0.47000000000E+01 0. -1.
         -5    1    5    5    0  503  0.71714055599E+02  0.74998561265E+01  0.18501364297E+03  0.19862349231E+03  0.47000000000E+01 0. -1.
<mgrwt>
<rscale>  0 0.27445695E+03</rscale>
<asrwt>0</asrwt>
<pdfrwt beam="1">  1        1 0.56094408E-01 0.27445695E+03</pdfrwt>
<pdfrwt beam="2">  1       -1 0.79458834E-02 0.27445695E+03</pdfrwt>
<totfact> 0.59042408E+03</totfact>
</mgrwt>
</event>
<event>
 9    1  0.2098759E-002  0.2756160E+03  0.7818608E-02  0.1098108E+00
         -2   -1    0    0    0  501 -0.00000000000E+00  0.00000000000E+00  0.58783942397E+03  0.58783942397E+03  0.00000000000E+00 0. -1.
          2   -1    0    0  501    0  0.00000000000E+00 -0.00000000000E+00 -0.32306518807E+02  0.32306518807E+02  0.00000000000E+00 0. -1.
         36    2    1    2    0    0  0.00000000000E+00  0.00000000000E+00  0.55553290516E+03  0.62014594277E+03  0.27561600393E+03 0.  0.
         25    2    3    3    0    0  0.40555759180E+02  0.28909465814E+02  0.27088391333E+03  0.30630859207E+03  0.13403854766E+03 0.  0.
         25    2    3    3    0    0 -0.40555759180E+02 -0.28909465814E+02  0.28464899183E+03  0.31383735070E+03  0.12242674271E+03 0.  0.
          5    1    4    4  502    0 -0.38749438066E+02 -0.25488234983E+02  0.83312323200E+02  0.95468331241E+02  0.47000000000E+01 0.  1.
         -5    1    4    4    0  502  0.79305197246E+02  0.54397700796E+02  0.18757159013E+03  0.21084026083E+03  0.47000000000E+01 0.  1.
          5    1    5    5  503    0  0.32083931984E+02  0.16154763812E+02  0.14971390496E+03  0.15403473122E+03  0.47000000000E+01 0.  1.
         -5    1    5    5    0  503 -0.72639691164E+02 -0.45064229625E+02  0.13493508687E+03  0.15980261948E+03  0.47000000000E+01 0.  1.
<mgrwt>
<rscale>  0 0.27561600E+03</rscale>
<asrwt>0</asrwt>
<pdfrwt beam="1">  1        2 0.49702341E-02 0.27561600E+03</pdfrwt>
<pdfrwt beam="2">  1       -2 0.90436827E-01 0.27561600E+03</pdfrwt>
<totfact> 0.17113084E+03</totfact>
</mgrwt>
</event>
<event>
 9    1  0.2098759E-002  0.2726568E+03  0.7818608E-02  0.1099769E+00
         -2   -1    0    0    0  501 -0.00000000000E+00  0.00000000000E+00  0.13028213855E+02  0.13028213855E+02  0.00000000000E+00 0.  1.
          2   -1    0    0  501    0  0.00000000000E+00 -0.00000000000E+00 -0.14265528537E+04  0.14265528537E+04  0.00000000000E+00 0.  1.
         36    2    1    2    0    0  0.00000000000E+00  0.00000000000E+00 -0.14135246399E+04  0.14395810676E+04  0.27265682206E+03 0.  0.
         25    2    3    3    0    0 -0.44916908555E+02  0.12518793696E+02 -0.69475316218E+03  0.70777662392E+03  0.12685245027E+03 0.  0.
         25    2    3    3    0    0  0.44916908555E+02 -0.12518793696E+02 -0.71877147770E+03  0.73180444367E+03  0.12934859006E+03 0.  0.
          5    1    4    4  502    0 -0.39369209691E+02 -0.36814043956E+02 -0.58174580307E+03  0.58425634604E+03  0.47000000000E+01 0.  1.
         -5    1    4    4    0  502 -0.55476988644E+01  0.49332837653E+02 -0.11300735912E+03  0.12352027788E+03  0.47000000000E+01 0.  1.
          5    1    5    5  503    0  0.65073257085E+02  0.57066637160E+00 -0.69368595422E+03  0.69674754935E+03  0.47000000000E+01 0.  1.
         -5    1    5    5    0  503 -0.20156348530E+02 -0.13089460068E+02 -0.25085523486E+02  0.35056894322E+02  0.47000000000E+01 0.  1.
<mgrwt>
<rscale>  0 0.27265682E+03</rscale>
<asrwt>0</asrwt>
<pdfrwt beam="1">  1        2 0.21946973E+00 0.27265682E+03</pdfrwt>
<pdfrwt beam="2">  1       -2 0.20043400E-02 0.27265682E+03</pdfrwt>
<totfact> 0.11513869E+04</totfact>
</mgrwt>
</event>
<event>
 9    1  0.2098759E-002  0.2731447E+03  0.7818608E-02  0.1099493E+00
         -2   -1    0    0    0  501 -0.00000000000E+00  0.00000000000E+00  0.36590288599E+02  0.36590288599E+02  0.00000000000E+00 0. -1.
          2   -1    0    0  501    0  0.00000000000E+00 -0.00000000000E+00 -0.50975307953E+03  0.50975307953E+03  0.00000000000E+00 0. -1.
         36    2    1    2    0    0  0.71054273576E-14  0.00000000000E+00 -0.47316279093E+03  0.54634336813E+03  0.27314474034E+03 0.  0.
         25    2    3    3    0    0  0.40624583345E+02  0.19340910766E+02 -0.20244071052E+03  0.24249260220E+03  0.12568211187E+03 0.  0.
         25    2    3    3    0    0 -0.40624583345E+02 -0.19340910766E+02 -0.27072208040E+03  0.30385076592E+03  0.13042398373E+03 0.  0.
          5    1    4    4  502    0 -0.22559203295E+02  0.54373861871E+02 -0.70252152627E+02  0.91776301172E+02  0.47000000000E+01 0. -1.
         -5    1    4    4    0  502  0.63183786640E+02 -0.35032951106E+02 -0.13218855790E+03  0.15071630103E+03  0.47000000000E+01 0. -1.
          5    1    5    5  503    0 -0.18815941979E+02 -0.45341806668E+02 -0.26446537160E+03  0.26902405446E+03  0.47000000000E+01 0.  1.
         -5    1    5    5    0  503 -0.21808641367E+02  0.26000895903E+02 -0.62567088025E+01  0.34826711459E+02  0.47000000000E+01 0.  1.
<mgrwt>
<rscale>  0 0.27314474E+03</rscale>
<asrwt>0</asrwt>
<pdfrwt beam="1">  1        2 0.78423545E-01 0.27314474E+03</pdfrwt>
<pdfrwt beam="2">  1       -2 0.56292756E-02 0.27314474E+03</pdfrwt>
<totfact> 0.98841883E+03</totfact>
</mgrwt>
</event>
<event>
 9    1  0.2098759E-002  0.2747768E+03  0.7818608E-02  0.1098576E+00
          1   -1    0    0  501    0  0.00000000000E+00  0.00000000000E+00  0.14177721478E+03  0.14177721478E+03  0.00000000000E+00 0. -1.
         -1   -1    0    0    0  501 -0.00000000000E+00 -0.00000000000E+00 -0.13313547489E+03  0.13313547489E+03  0.00000000000E+00 0. -1.
         36    2    1    2    0    0  0.00000000000E+00 -0.71054273576E-14  0.86417398901E+01  0.27491268967E+03  0.27477683176E+03 0.  0.
         25    2    3    3    0    0 -0.50545709955E+02 -0.33123846436E+02  0.61644182626E+02  0.12434288261E+03  0.89493514892E+02 0.  0.
         25    2    3    3    0    0  0.50545709955E+02  0.33123846436E+02 -0.53002442736E+02  0.15056980705E+03  0.12731830137E+03 0.  0.
          5    1    4    4  502    0 -0.42958584966E+02  0.24349577212E+02  0.24413950193E+02  0.55285376879E+02  0.47000000000E+01 0. -1.
         -5    1    4    4    0  502 -0.75871249898E+01 -0.57473423648E+02  0.37230232433E+02  0.69057505736E+02  0.47000000000E+01 0. -1.
          5    1    5    5  503    0 -0.25465291908E+02 -0.25766547159E+02  0.69116504834E+01  0.37178716450E+02  0.47000000000E+01 0. -1.
         -5    1    5    5    0  503  0.76011001864E+02  0.58890393595E+02 -0.59914093219E+02  0.11339109060E+03  0.47000000000E+01 0. -1.
<mgrwt>
<rscale>  0 0.27477683E+03</rscale>
<asrwt>0</asrwt>
<pdfrwt beam="1">  1        1 0.21811879E-01 0.27477683E+03</pdfrwt>
<pdfrwt beam="2">  1       -1 0.20482381E-01 0.27477683E+03</pdfrwt>
<totfact> 0.43957474E+03</totfact>
</mgrwt>
</event>
<event>
 9    1  0.2098759E-002  0.2748037E+03  0.7818608E-02  0.1098561E+00
         -3   -1    0    0    0  501 -0.00000000000E+00  0.00000000000E+00  0.31524801521E+03  0.31524801521E+03  0.00000000000E+00 0.  1.
          3   -1    0    0  501    0  0.00000000000E+00 -0.00000000000E+00 -0.59887046179E+02  0.59887046179E+02  0.00000000000E+00 0.  1.
         36    2    1    2    0    0  0.00000000000E+00  0.00000000000E+00  0.25536096903E+03  0.37513506139E+03  0.27480372956E+03 0.  0.
         25    2    3    3    0    0  0.25686973625E+02 -0.64691073643E+01  0.19076764238E+03  0.23108442347E+03  0.12769513472E+03 0.  0.
         25    2    3    3    0    0 -0.25686973625E+02  0.64691073643E+01  0.64593326654E+02  0.14405063792E+03  0.12600245423E+03 0.  0.
          5    1    4    4  502    0  0.51458855815E+02 -0.35129350108E+02  0.18037186620E+03  0.19088788646E+03  0.47000000000E+01 0.  1.
         -5    1    4    4    0  502 -0.25771882190E+02  0.28660242744E+02  0.10395776180E+02  0.40196537017E+02  0.47000000000E+01 0.  1.
          5    1    5    5  503    0 -0.38301134731E+01  0.44480259352E+02  0.84486887829E+02  0.95672814614E+02  0.47000000000E+01 0. -1.
         -5    1    5    5    0  503 -0.21856860152E+02 -0.38011151988E+02 -0.19893561175E+02  0.48377823301E+02  0.47000000000E+01 0. -1.
<mgrwt>
<rscale>  0 0.27480373E+03</rscale>
<asrwt>0</asrwt>
<pdfrwt beam="1">  1        3 0.92133919E-02 0.27480373E+03</pdfrwt>
<pdfrwt beam="2">  1       -3 0.48499694E-01 0.27480373E+03</pdfrwt>
<totfact> 0.91266343E+02</totfact>
</mgrwt>
</event>
<event>
 9    1  0.2098759E-002  0.2755352E+03  0.7818608E-02  0.1098153E+00
          2   -1    0    0  501    0  0.00000000000E+00  0.00000000000E+00  0.16790098294E+03  0.16790098294E+03  0.00000000000E+00 0. -1.
         -2   -1    0    0    0  501 -0.00000000000E+00 -0.00000000000E+00 -0.11304228690E+03  0.11304228690E+03  0.00000000000E+00 0. -1.
         36    2    1    2    0    0  0.00000000000E+00  0.00000000000E+00  0.54858696041E+02  0.28094326984E+03  0.27553519618E+03 0.  0.
         25    2    3    3    0    0  0.14146845020E+02  0.42334829509E+02  0.69171506552E+01  0.14123522870E+03  0.13381768134E+03 0.  0.
         25    2    3    3    0    0 -0.14146845020E+02 -0.42334829509E+02  0.47941545386E+02  0.13970804114E+03  0.12340005661E+03 0.  0.
          5    1    4    4  502    0 -0.52937576917E+02 -0.11252994571E+02 -0.44139662570E+01  0.54503119496E+02  0.47000000000E+01 0.  1.
         -5    1    4    4    0  502  0.67084421937E+02  0.53587824080E+02  0.11331116912E+02  0.86732109203E+02  0.47000000000E+01 0.  1.
          5    1    5    5  503    0 -0.55866665799E+02 -0.23973375169E+02 -0.14095274821E+02  0.62582536197E+02  0.47000000000E+01 0.  1.
         -5    1    5    5    0  503  0.41719820779E+02 -0.18361454340E+02  0.62036820207E+02  0.77125504943E+02  0.47000000000E+01 0.  1.
<mgrwt>
<rscale>  0 0.27553520E+03</rscale>
<asrwt>0</asrwt>
<pdfrwt beam="1">  1        2 0.25830920E-01 0.27553520E+03</pdfrwt>
<pdfrwt beam="2">  1       -2 0.17391121E-01 0.27553520E+03</pdfrwt>
<totfact> 0.54954705E+03</totfact>
</mgrwt>
</event>
<event>
 9    1  0.2098759E-002  0.2753226E+03  0.7818608E-02  0.1098271E+00
          1   -1    0    0  501    0  0.00000000000E+00  0.00000000000E+00  0.72372040587E+03  0.72372040587E+03  0.00000000000E+00 0.  1.
         -1   -1    0    0    0  501 -0.00000000000E+00 -0.00000000000E+00 -0.26185024925E+02  0.26185024925E+02  0.00000000000E+00 0.  1.
         36    2    1    2    0    0  0.00000000000E+00  0.71054273576E-14  0.69753538095E+03  0.74990543080E+03  0.27532262432E+03 0.  0.
         25    2    3    3    0    0 -0.58249037094E+02  0.35217944924E+02  0.34639892355E+03  0.37131207511E+03  0.11509643316E+03 0.  0.
         25    2    3    3    0    0  0.58249037094E+02 -0.35217944924E+02  0.35113645740E+03  0.37859335568E+03  0.12410827242E+03 0.  0.
          5    1    4    4  502    0 -0.50544668197E+01  0.69030051218E+02  0.20525902347E+03  0.21666576177E+03  0.47000000000E+01 0.  1.
         -5    1    4    4    0  502 -0.53194570274E+02 -0.33812106294E+02  0.14113990007E+03  0.15464631334E+03  0.47000000000E+01 0.  1.
          5    1    5    5  503    0  0.79098693875E+02  0.14674531142E+02  0.26314600304E+03  0.27520874650E+03  0.47000000000E+01 0. -1.
         -5    1    5    5    0  503 -0.20849656781E+02 -0.49892476066E+02  0.87990454362E+02  0.10338460918E+03  0.47000000000E+01 0. -1.
<mgrwt>
<rscale>  0 0.27532262E+03</rscale>
<asrwt>0</asrwt>
<pdfrwt beam="1">  1        1 0.11134159E+00 0.27532262E+03</pdfrwt>
<pdfrwt beam="2">  1       -1 0.40284659E-02 0.27532262E+03</pdfrwt>
<totfact> 0.65129612E+03</totfact>
</mgrwt>
</event>
<event>
 9    1  0.2098759E-002  0.2684409E+03  0.7818608E-02  0.1102175E+00
         -2   -1    0    0    0  501 -0.00000000000E+00  0.00000000000E+00  0.11087975098E+02  0.11087975098E+02  0.00000000000E+00 0.  1.
          2   -1    0    0  501    0  0.00000000000E+00 -0.00000000000E+00 -0.16247446908E+04  0.16247446908E+04  0.00000000000E+00 0.  1.
         36    2    1    2    0    0  0.00000000000E+00  0.17763568394E-14 -0.16136567157E+04  0.16358326659E+04  0.26844089607E+03 0.  0.
         25    2    3    3    0    0  0.80908675667E+01 -0.73630768477E+01 -0.51588634172E+03  0.53065678278E+03  0.12384759386E+03 0.  0.
         25    2    3    3    0    0 -0.80908675667E+01  0.73630768477E+01 -0.10977703740E+04  0.11051758831E+04  0.12725667597E+03 0.  0.
          5    1    4    4  502    0 -0.48465495801E+01  0.10948484132E+02  0.13319301209E+01  0.12931449473E+02  0.47000000000E+01 0.  1.
         -5    1    4    4    0  502  0.12937417147E+02 -0.18311560980E+02 -0.51721827184E+03  0.51772533331E+03  0.47000000000E+01 0.  1.
          5    1    5    5  503    0  0.36084225601E+02 -0.42892785803E+01 -0.94357389416E+03  0.94428504859E+03  0.47000000000E+01 0. -1.
         -5    1    5    5    0  503 -0.44175093168E+02  0.11652355428E+02 -0.15419647979E+03  0.16089083449E+03  0.47000000000E+01 0. -1.
<mgrwt>
<rscale>  0 0.26844090E+03</rscale>
<asrwt>0</asrwt>
<pdfrwt beam="1">  1        2 0.24996045E+00 0.26844090E+03</pdfrwt>
<pdfrwt beam="2">  1       -2 0.17058442E-02 0.26844090E+03</pdfrwt>
<totfact> 0.11431395E+04</totfact>
</mgrwt>
</event>
<event>
 9    1  0.2098759E-002  0.2748031E+03  0.7818608E-02  0.1098562E+00
          2   -1    0    0  501    0  0.00000000000E+00  0.00000000000E+00  0.49387189712E+03  0.49387189712E+03  0.00000000000E+00 0. -1.
         -2   -1    0    0    0  501 -0.00000000000E+00 -0.00000000000E+00 -0.38226884112E+02  0.38226884112E+02  0.00000000000E+00 0. -1.
         36    2    1    2    0    0  0.00000000000E+00  0.00000000000E+00  0.45564501300E+03  0.53209878123E+03  0.27480308424E+03 0.  0.
         25    2    3    3    0    0 -0.18077624230E+02 -0.50336458596E+02  0.24465150174E+03  0.27949971802E+03  0.12411758742E+03 0.  0.
         25    2    3    3    0    0  0.18077624230E+02  0.50336458596E+02  0.21099351126E+03  0.25259906321E+03  0.12816967417E+03 0.  0.
          5    1    4    4  502    0  0.48565758871E+02 -0.47623440496E+02  0.11800134676E+03  0.13628291477E+03  0.47000000000E+01 0.  1.
         -5    1    4    4    0  502 -0.66643383101E+02 -0.27130181004E+01  0.12665015498E+03  0.14321680326E+03  0.47000000000E+01 0.  1.
          5    1    5    5  503    0 -0.39140514174E+02  0.10508520707E+02  0.13285239262E+02  0.42906834414E+02  0.47000000000E+01 0. -1.
         -5    1    5    5    0  503  0.57218138403E+02  0.39827937889E+02  0.19770827200E+03  0.20969222879E+03  0.47000000000E+01 0. -1.
<mgrwt>
<rscale>  0 0.27480308E+03</rscale>
<asrwt>0</asrwt>
<pdfrwt beam="1">  1        2 0.75980287E-01 0.27480308E+03</pdfrwt>
<pdfrwt beam="2">  1       -2 0.58810594E-02 0.27480308E+03</pdfrwt>
<totfact> 0.95795630E+03</totfact>
</mgrwt>
</event>
<event>
 9    1  0.2098759E-002  0.2743588E+03  0.7818608E-02  0.1098811E+00
         -2   -1    0    0    0  501 -0.00000000000E+00  0.00000000000E+00  0.17407554018E+03  0.17407554018E+03  0.00000000000E+00 0. -1.
          2   -1    0    0  501    0  0.00000000000E+00 -0.00000000000E+00 -0.10810360278E+03  0.10810360278E+03  0.00000000000E+00 0. -1.
         36    2    1    2    0    0  0.00000000000E+00  0.00000000000E+00  0.65971937399E+02  0.28217914295E+03  0.27435883837E+03 0.  0.
         25    2    3    3    0    0  0.22517315180E+02 -0.15342847001E+02 -0.15016556106E+02  0.13031378035E+03  0.12654545411E+03 0.  0.
         25    2    3    3    0    0 -0.22517315180E+02  0.15342847001E+02  0.80988493505E+02  0.15186536260E+03  0.12554489173E+03 0.  0.
          5    1    4    4  502    0 -0.14450645176E+02  0.26105834060E+02 -0.54291255685E+02  0.62128625945E+02  0.47000000000E+01 0. -1.
         -5    1    4    4    0  502  0.36967960356E+02 -0.41448681061E+02  0.39274699579E+02  0.68185154408E+02  0.47000000000E+01 0. -1.
          5    1    5    5  503    0 -0.52394311544E+02 -0.31487369355E+02  0.73348634781E+02  0.95596707764E+02  0.47000000000E+01 0. -1.
         -5    1    5    5    0  503  0.29876996364E+02  0.46830216357E+02  0.76398587239E+01  0.56268654836E+02  0.47000000000E+01 0. -1.
<mgrwt>
<rscale>  0 0.27435884E+03</rscale>
<asrwt>0</asrwt>
<pdfrwt beam="1">  1        2 0.16631324E-01 0.27435884E+03</pdfrwt>
<pdfrwt beam="2">  1       -2 0.26780852E-01 0.27435884E+03</pdfrwt>
<totfact> 0.43045930E+03</totfact>
</mgrwt>
</event>
<event>
 9    1  0.2098759E-002  0.2744351E+03  0.7818608E-02  0.1098768E+00
          2   -1    0    0  501    0  0.00000000000E+00  0.00000000000E+00  0.84222523766E+01  0.84222523766E+01  0.00000000000E+00 0. -1.
         -2   -1    0    0    0  501 -0.00000000000E+00 -0.00000000000E+00 -0.22355841181E+04  0.22355841181E+04  0.00000000000E+00 0. -1.
         36    2    1    2    0    0  0.00000000000E+00  0.35527136788E-14 -0.22271618657E+04  0.22440063705E+04  0.27443508268E+03 0.  0.
         25    2    3    3    0    0 -0.53066332764E+02 -0.43571288406E+01 -0.12378385200E+04  0.12451063420E+04  0.12333118423E+03 0.  0.
         25    2    3    3    0    0  0.53066332764E+02  0.43571288406E+01 -0.98932334573E+03  0.99890002850E+03  0.12730107732E+03 0.  0.
          5    1    4    4  502    0  0.10444611147E+02 -0.33031169643E+02 -0.86963196997E+03  0.87033441922E+03  0.47000000000E+01 0.  1.
         -5    1    4    4    0  502 -0.63510943912E+02  0.28674040802E+02 -0.36820655002E+03  0.37477192276E+03  0.47000000000E+01 0.  1.
          5    1    5    5  503    0  0.34766011699E+02  0.21592650703E+02 -0.87480157524E+02  0.96694291943E+02  0.47000000000E+01 0.  1.
         -5    1    5    5    0  503  0.18300321065E+02 -0.17235521862E+02 -0.90184318820E+03  0.90220573655E+03  0.47000000000E+01 0.  1.
<mgrwt>
<rscale>  0 0.27443508E+03</rscale>
<asrwt>0</asrwt>
<pdfrwt beam="1">  1        2 0.12957274E-02 0.27443508E+03</pdfrwt>
<pdfrwt beam="2">  1       -2 0.34393702E+00 0.27443508E+03</pdfrwt>
<totfact> 0.20149230E+02</totfact>
</mgrwt>
</event>
<event>
 9    1  0.2098759E-002  0.2752715E+03  0.7818608E-02  0.1098300E+00
          1   -1    0    0  501    0  0.00000000000E+00  0.00000000000E+00  0.25059506548E+03  0.25059506548E+03  0.00000000000E+00 0.  1.
         -1   -1    0    0    0  501 -0.00000000000E+00 -0.00000000000E+00 -0.75594479765E+02  0.75594479765E+02  0.00000000000E+00 0.  1.
         36    2    1    2    0    0 -0.14210854715E-13  0.00000000000E+00  0.17500058571E+03  0.32618954524E+03  0.27527152854E+03 0.  0.
         25    2    3    3    0    0 -0.34492399796E+02  0.39672513296E+02  0.11629137863E+03  0.17780220358E+03  0.12379945436E+03 0.  0.
         25    2    3    3    0    0  0.34492399796E+02 -0.39672513296E+02  0.58709207082E+02  0.14838734166E+03  0.12573145277E+03 0.  0.
          5    1    4    4  502    0 -0.53586485355E+02  0.33960315231E+02  0.40889428983E+01  0.63746559729E+02  0.47000000000E+01 0.  1.
         -5    1    4    4    0  502  0.19094085560E+02  0.57121980657E+01  0.11220243573E+03  0.11405564385E+03  0.47000000000E+01 0.  1.
          5    1    5    5  503    0  0.68313586666E+02 -0.41438482025E+02 -0.47224288863E+00  0.80038783905E+02  0.47000000000E+01 0.  1.
         -5    1    5    5    0  503 -0.33821186870E+02  0.17659687284E+01  0.59181449971E+02  0.68348557758E+02  0.47000000000E+01 0.  1.
<mgrwt>
<rscale>  0 0.27527153E+03</rscale>
<asrwt>0</asrwt>
<pdfrwt beam="1">  1        1 0.38553087E-01 0.27527153E+03</pdfrwt>
<pdfrwt beam="2">  1       -1 0.11629920E-01 0.27527153E+03</pdfrwt>
<totfact> 0.52628814E+03</totfact>
</mgrwt>
</event>
<event>
 9    1  0.2098759E-002  0.2745789E+03  0.7818608E-02  0.1098687E+00
         -2   -1    0    0    0  501 -0.00000000000E+00  0.00000000000E+00  0.17850400376E+02  0.17850400376E+02  0.00000000000E+00 0. -1.
          2   -1    0    0  501    0  0.00000000000E+00 -0.00000000000E+00 -0.10559086340E+04  0.10559086340E+04  0.00000000000E+00 0. -1.
         36    2    1    2    0    0  0.00000000000E+00  0.71054273576E-14 -0.10380582336E+04  0.10737590344E+04  0.27457889123E+03 0.  0.
         25    2    3    3    0    0  0.29221730915E+02 -0.50585422174E+02 -0.59158113522E+03  0.60548951709E+03  0.11505008151E+03 0.  0.
         25    2    3    3    0    0 -0.29221730915E+02  0.50585422174E+02 -0.44647709840E+03  0.46826951729E+03  0.12853694774E+03 0.  0.
          5    1    4    4  502    0 -0.36913577762E+02  0.27632127050E+01 -0.28077094870E+03  0.28323958622E+03  0.47000000000E+01 0. -1.
         -5    1    4    4    0  502  0.66135308677E+02 -0.53348634879E+02 -0.31081018652E+03  0.32224993087E+03  0.47000000000E+01 0. -1.
          5    1    5    5  503    0  0.40362060429E+01  0.79314929762E+02 -0.38135295471E+03  0.38956297964E+03  0.47000000000E+01 0.  1.
         -5    1    5    5    0  503 -0.33257936958E+02 -0.28729507589E+02 -0.65124143691E+02  0.78706537648E+02  0.47000000000E+01 0.  1.
<mgrwt>
<rscale>  0 0.27457889E+03</rscale>
<asrwt>0</asrwt>
<pdfrwt beam="1">  1        2 0.16244754E+00 0.27457889E+03</pdfrwt>
<pdfrwt beam="2">  1       -2 0.27462145E-02 0.27457889E+03</pdfrwt>
<totfact> 0.11704676E+04</totfact>
</mgrwt>
</event>
<event>
 9    1  0.2098759E-002  0.2750066E+03  0.7818608E-02  0.1098448E+00
         -2   -1    0    0    0  501 -0.00000000000E+00  0.00000000000E+00  0.17105652037E+02  0.17105652037E+02  0.00000000000E+00 0. -1.
          2   -1    0    0  501    0  0.00000000000E+00 -0.00000000000E+00 -0.11053165948E+04  0.11053165948E+04  0.00000000000E+00 0. -1.
         36    2    1    2    0    0  0.00000000000E+00  0.00000000000E+00 -0.10882109427E+04  0.11224222468E+04  0.27500662581E+03 0.  0.
         25    2    3    3    0    0  0.47439827765E+00  0.41069175297E+02 -0.68784527399E+03  0.70018894231E+03  0.12428407687E+03 0.  0.
         25    2    3    3    0    0 -0.47439827765E+00 -0.41069175297E+02 -0.40036566872E+03  0.42223330448E+03  0.12767690671E+03 0.  0.
          5    1    4    4  502    0 -0.39594434267E+02  0.70466228589E+02 -0.42085979610E+03  0.42857702525E+03  0.47000000000E+01 0.  1.
         -5    1    4    4    0  502  0.40068832545E+02 -0.29397053292E+02 -0.26698547789E+03  0.27161191706E+03  0.47000000000E+01 0.  1.
          5    1    5    5  503    0 -0.59695136227E+02 -0.44125202862E+02 -0.23526228683E+03  0.24674070686E+03  0.47000000000E+01 0.  1.
         -5    1    5    5    0  503  0.59220737949E+02  0.30560275653E+01 -0.16510338189E+03  0.17549259762E+03  0.47000000000E+01 0.  1.
<mgrwt>
<rscale>  0 0.27500663E+03</rscale>
<asrwt>0</asrwt>
<pdfrwt beam="1">  1        2 0.17004875E+00 0.27500663E+03</pdfrwt>
<pdfrwt beam="2">  1       -2 0.26316382E-02 0.27500663E+03</pdfrwt>
<totfact> 0.11657044E+04</totfact>
</mgrwt>
</event>
<event>
 9    1  0.2098759E-002  0.2754542E+03  0.7818608E-02  0.1098198E+00
          1   -1    0    0  501    0  0.00000000000E+00  0.00000000000E+00  0.21962190375E+03  0.21962190375E+03  0.00000000000E+00 0.  1.
         -1   -1    0    0    0  501 -0.00000000000E+00 -0.00000000000E+00 -0.86370047026E+02  0.86370047026E+02  0.00000000000E+00 0.  1.
         36    2    1    2    0    0  0.14210854715E-13  0.00000000000E+00  0.13325185673E+03  0.30599195078E+03  0.27545420058E+03 0.  0.
         25    2    3    3    0    0 -0.50398574404E+02 -0.31727881711E+02  0.79982849953E+02  0.16050057149E+03  0.12576367672E+03 0.  0.
         25    2    3    3    0    0  0.50398574404E+02  0.31727881711E+02  0.53269006772E+02  0.14549137929E+03  0.12158733316E+03 0.  0.
          5    1    4    4  502    0 -0.69058747893E+01 -0.74928681774E+02  0.29538426423E+02  0.80972878759E+02  0.47000000000E+01 0.  1.
         -5    1    4    4    0  502 -0.43492699615E+02  0.43200800064E+02  0.50444423530E+02  0.79527692732E+02  0.47000000000E+01 0.  1.
          5    1    5    5  503    0 -0.29488430393E+01  0.11367375600E+02  0.80899872363E+02  0.81882795822E+02  0.47000000000E+01 0.  1.
         -5    1    5    5    0  503  0.53347417443E+02  0.20360506111E+02 -0.27630865591E+02  0.63608583464E+02  0.47000000000E+01 0.  1.
<mgrwt>
<rscale>  0 0.27545420E+03</rscale>
<asrwt>0</asrwt>
<pdfrwt beam="1">  1        1 0.33787985E-01 0.27545420E+03</pdfrwt>
<pdfrwt beam="2">  1       -1 0.13287700E-01 0.27545420E+03</pdfrwt>
<totfact> 0.50419229E+03</totfact>
</mgrwt>
</event>
<event>
 9    1  0.2098759E-002  0.2750508E+03  0.7818608E-02  0.1098423E+00
          1   -1    0    0  501    0  0.00000000000E+00  0.00000000000E+00  0.55185644966E+03  0.55185644966E+03  0.00000000000E+00 0.  1.
         -1   -1    0    0    0  501 -0.00000000000E+00 -0.00000000000E+00 -0.34272029836E+02  0.34272029836E+02  0.00000000000E+00 0.  1.
         36    2    1    2    0    0 -0.35527136788E-14  0.00000000000E+00  0.51758441982E+03  0.58612847949E+03  0.27505083681E+03 0.  0.
         25    2    3    3    0    0  0.20114045721E+02 -0.90728624108E+01  0.39356278061E+03  0.41206085844E+03  0.12006497037E+03 0.  0.
         25    2    3    3    0    0 -0.20114045721E+02  0.90728624108E+01  0.12402163921E+03  0.17406762105E+03  0.12013025447E+03 0.  0.
          5    1    4    4  502    0  0.33950983828E+01 -0.54532799328E+01  0.39422785444E+03  0.39430819947E+03  0.47000000000E+01 0. -1.
         -5    1    4    4    0  502  0.16718947338E+02 -0.36195824780E+01 -0.66507382644E+00  0.17752658973E+02  0.47000000000E+01 0. -1.
          5    1    5    5  503    0  0.84037641973E+01 -0.44140445088E+01 -0.22099125218E+02  0.24506496629E+02  0.47000000000E+01 0. -1.
         -5    1    5    5    0  503 -0.28517809918E+02  0.13486906920E+02  0.14612076443E+03  0.14956112442E+03  0.47000000000E+01 0. -1.
<mgrwt>
<rscale>  0 0.27505084E+03</rscale>
<asrwt>0</asrwt>
<pdfrwt beam="1">  1        1 0.84900986E-01 0.27505084E+03</pdfrwt>
<pdfrwt beam="2">  1       -1 0.52726204E-02 0.27505084E+03</pdfrwt>
<totfact> 0.63900016E+03</totfact>
</mgrwt>
</event>
<event>
 9    1  0.2098759E-002  0.2743969E+03  0.7818608E-02  0.1098789E+00
         -1   -1    0    0    0  501 -0.00000000000E+00  0.00000000000E+00  0.21433918142E+03  0.21433918142E+03  0.00000000000E+00 0. -1.
          1   -1    0    0  501    0  0.00000000000E+00 -0.00000000000E+00 -0.87820690901E+02  0.87820690901E+02  0.00000000000E+00 0. -1.
         36    2    1    2    0    0  0.00000000000E+00  0.00000000000E+00  0.12651849052E+03  0.30215987233E+03  0.27439690231E+03 0.  0.
         25    2    3    3    0    0  0.47614558427E+02 -0.29839939631E+02  0.60060242094E+01  0.11748900921E+03  0.10300498429E+03 0.  0.
         25    2    3    3    0    0 -0.47614558427E+02  0.29839939631E+02  0.12051246631E+03  0.18467086311E+03  0.12815032179E+03 0.  0.
          5    1    4    4  502    0  0.63919887632E+02 -0.18739729230E+02  0.40048795931E+02  0.77864790130E+02  0.47000000000E+01 0.  1.
         -5    1    4    4    0  502 -0.16305329205E+02 -0.11100210401E+02 -0.34042771722E+02  0.39624219083E+02  0.47000000000E+01 0.  1.
          5    1    5    5  503    0 -0.20921957234E+00 -0.23825223873E+02 -0.16943217039E+02  0.29611613753E+02  0.47000000000E+01 0.  1.
         -5    1    5    5    0  503 -0.47405338855E+02  0.53665163504E+02  0.13745568335E+03  0.15505924936E+03  0.47000000000E+01 0.  1.
<mgrwt>
<rscale>  0 0.27439690E+03</rscale>
<asrwt>0</asrwt>
<pdfrwt beam="1">  1        1 0.13510876E-01 0.27439690E+03</pdfrwt>
<pdfrwt beam="2">  1       -1 0.32975259E-01 0.27439690E+03</pdfrwt>
<totfact> 0.36960352E+03</totfact>
</mgrwt>
</event>
<event>
 9    1  0.2098759E-002  0.2775531E+03  0.7818608E-02  0.1097033E+00
         -1   -1    0    0    0  501 -0.00000000000E+00  0.00000000000E+00  0.21115038271E+03  0.21115038271E+03  0.00000000000E+00 0.  1.
          1   -1    0    0  501    0  0.00000000000E+00 -0.00000000000E+00 -0.91209575862E+02  0.91209575862E+02  0.00000000000E+00 0.  1.
         36    2    1    2    0    0  0.00000000000E+00  0.71054273576E-14  0.11994080684E+03  0.30235995857E+03  0.27755314338E+03 0.  0.
         25    2    3    3    0    0 -0.23781186865E+02 -0.33813132282E+02  0.17061613579E+02  0.13137791479E+03  0.12353212163E+03 0.  0.
         25    2    3    3    0    0  0.23781186865E+02  0.33813132282E+02  0.10287919327E+03  0.17098204378E+03  0.13016089322E+03 0.  0.
          5    1    4    4  502    0 -0.59293484399E+02 -0.18728581377E+02  0.50393046072E+02  0.80174972061E+02  0.47000000000E+01 0.  1.
         -5    1    4    4    0  502  0.35512297534E+02 -0.15084550905E+02 -0.33331432494E+02  0.51202942730E+02  0.47000000000E+01 0.  1.
          5    1    5    5  503    0 -0.15903500823E+02 -0.30730916100E+01  0.11419504716E+03  0.11543380799E+03  0.47000000000E+01 0.  1.
         -5    1    5    5    0  503  0.39684687688E+02  0.36886223892E+02 -0.11315853896E+02  0.55548235789E+02  0.47000000000E+01 0.  1.
<mgrwt>
<rscale>  0 0.27755314E+03</rscale>
<asrwt>0</asrwt>
<pdfrwt beam="1">  1        1 0.14032242E-01 0.27755314E+03</pdfrwt>
<pdfrwt beam="2">  1       -1 0.32484674E-01 0.27755314E+03</pdfrwt>
<totfact> 0.36090377E+03</totfact>
</mgrwt>
</event>
<event>
 9    1  0.2098759E-002  0.2754837E+03  0.7818608E-02  0.1098182E+00
          1   -1    0    0  501    0  0.00000000000E+00  0.00000000000E+00  0.22410395158E+04  0.22410395158E+04  0.00000000000E+00 0.  1.
         -1   -1    0    0    0  501 -0.00000000000E+00 -0.00000000000E+00 -0.84660767583E+01  0.84660767583E+01  0.00000000000E+00 0.  1.
         36    2    1    2    0    0  0.00000000000E+00 -0.14210854715E-13  0.22325734390E+04  0.22495055925E+04  0.27548366600E+03 0.  0.
         25    2    3    3    0    0  0.10944382567E+02  0.50407406877E+02  0.11423523586E+04  0.11503644343E+04  0.12533449019E+03 0.  0.
         25    2    3    3    0    0 -0.10944382567E+02 -0.50407406877E+02  0.10902210804E+04  0.10991411582E+04  0.12987915637E+03 0.  0.
          5    1    4    4  502    0 -0.15058352458E+02 -0.37200404018E+02  0.48390193905E+03  0.48558603836E+03  0.47000000000E+01 0.  1.
         -5    1    4    4    0  502  0.26002735025E+02  0.87607810895E+02  0.65845041955E+03  0.66477839598E+03  0.47000000000E+01 0.  1.
          5    1    5    5  503    0  0.37208029120E+02 -0.26762956052E+02  0.90702779599E+03  0.90819722855E+03  0.47000000000E+01 0. -1.
         -5    1    5    5    0  503 -0.48152411687E+02 -0.23644450825E+02  0.18319328441E+03  0.19094392963E+03  0.47000000000E+01 0. -1.
<mgrwt>
<rscale>  0 0.27548367E+03</rscale>
<asrwt>0</asrwt>
<pdfrwt beam="1">  1        1 0.34477484E+00 0.27548367E+03</pdfrwt>
<pdfrwt beam="2">  1       -1 0.13024751E-02 0.27548367E+03</pdfrwt>
<totfact> 0.30121175E+03</totfact>
</mgrwt>
</event>
<event>
 9    1  0.2098759E-002  0.2735646E+03  0.7818608E-02  0.1099257E+00
          2   -1    0    0  501    0  0.00000000000E+00  0.00000000000E+00  0.10162844287E+04  0.10162844287E+04  0.00000000000E+00 0. -1.
         -2   -1    0    0    0  501 -0.00000000000E+00 -0.00000000000E+00 -0.18409609720E+02  0.18409609720E+02  0.00000000000E+00 0. -1.
         36    2    1    2    0    0 -0.71054273576E-14  0.00000000000E+00  0.99787481894E+03  0.10346940384E+04  0.27356461537E+03 0.  0.
         25    2    3    3    0    0 -0.94289601142E+01  0.50738326039E+02  0.57081174134E+03  0.58653226003E+03  0.12462248989E+03 0.  0.
         25    2    3    3    0    0  0.94289601142E+01 -0.50738326039E+02  0.42706307760E+03  0.44816177835E+03  0.12570928489E+03 0.  0.
          5    1    4    4  502    0  0.24706356786E+02 -0.34441883375E+02  0.20123211646E+03  0.20570148782E+03  0.47000000000E+01 0.  1.
         -5    1    4    4    0  502 -0.34135316900E+02  0.85180209414E+02  0.36957962488E+03  0.38083077221E+03  0.47000000000E+01 0.  1.
          5    1    5    5  503    0 -0.56120336321E+02 -0.65506690901E+01  0.17707769640E+03  0.18593279424E+03  0.47000000000E+01 0.  1.
         -5    1    5    5    0  503  0.65549296436E+02 -0.44187656948E+02  0.24998538120E+03  0.26222898410E+03  0.47000000000E+01 0.  1.
<mgrwt>
<rscale>  0 0.27356462E+03</rscale>
<asrwt>0</asrwt>
<pdfrwt beam="1">  1        2 0.15635141E+00 0.27356462E+03</pdfrwt>
<pdfrwt beam="2">  1       -2 0.28322484E-02 0.27356462E+03</pdfrwt>
<totfact> 0.11811359E+04</totfact>
</mgrwt>
</event>
<event>
 9    1  0.2098759E-002  0.2747001E+03  0.7818608E-02  0.1098619E+00
         -2   -1    0    0    0  501 -0.00000000000E+00  0.00000000000E+00  0.69127458485E+01  0.69127458485E+01  0.00000000000E+00 0.  1.
          2   -1    0    0  501    0  0.00000000000E+00 -0.00000000000E+00 -0.27290213671E+04  0.27290213671E+04  0.00000000000E+00 0.  1.
         36    2    1    2    0    0 -0.71054273576E-14  0.71054273576E-14 -0.27221086212E+04  0.27359341129E+04  0.27470006280E+03 0.  0.
         25    2    3    3    0    0 -0.42808485007E+01 -0.62586468123E+02 -0.12342451232E+04  0.12420596476E+04  0.12416018770E+03 0.  0.
         25    2    3    3    0    0  0.42808485007E+01  0.62586468123E+02 -0.14878634980E+04  0.14938744654E+04  0.11826976772E+03 0.  0.
          5    1    4    4  502    0 -0.44571826744E+02 -0.66375520605E+02 -0.10639013607E+04  0.10669116893E+04  0.47000000000E+01 0.  1.
         -5    1    4    4    0  502  0.40290978244E+02  0.37890524814E+01 -0.17034376257E+03  0.17514795829E+03  0.47000000000E+01 0.  1.
          5    1    5    5  503    0  0.41277181021E+02  0.44561652607E+02 -0.13031651775E+04  0.13045884855E+04  0.47000000000E+01 0.  1.
         -5    1    5    5    0  503 -0.36996332520E+02  0.18024815516E+02 -0.18469832046E+03  0.18928597987E+03  0.47000000000E+01 0.  1.
<mgrwt>
<rscale>  0 0.27470006E+03</rscale>
<asrwt>0</asrwt>
<pdfrwt beam="1">  1        2 0.41984992E+00 0.27470006E+03</pdfrwt>
<pdfrwt beam="2">  1       -2 0.10634982E-02 0.27470006E+03</pdfrwt>
<totfact> 0.58291728E+03</totfact>
</mgrwt>
</event>
<event>
 9    1  0.2098759E-002  0.2747415E+03  0.7818608E-02  0.1098596E+00
          2   -1    0    0  501    0  0.00000000000E+00  0.00000000000E+00  0.15697381302E+04  0.15697381302E+04  0.00000000000E+00 0. -1.
         -2   -1    0    0    0  501 -0.00000000000E+00 -0.00000000000E+00 -0.12021576537E+02  0.12021576537E+02  0.00000000000E+00 0. -1.
         36    2    1    2    0    0  0.35527136788E-14  0.28421709430E-13  0.15577165537E+04  0.15817597068E+04  0.27474153000E+03 0.  0.
         25    2    3    3    0    0 -0.28186329408E+02 -0.43607884439E+02  0.58301090000E+03  0.59948621013E+03  0.12956037152E+03 0.  0.
         25    2    3    3    0    0  0.28186329408E+02  0.43607884439E+02  0.97470565368E+03  0.98227349663E+03  0.11006359118E+03 0.  0.
          5    1    4    4  502    0 -0.24843173549E+02 -0.66831606025E+02  0.15357610263E+03  0.16938522998E+03  0.47000000000E+01 0.  1.
         -5    1    4    4    0  502 -0.33431558593E+01  0.23223721586E+02  0.42943479738E+03  0.43010098016E+03  0.47000000000E+01 0.  1.
          5    1    5    5  503    0 -0.10557507106E+02  0.69467748032E+02  0.44922678340E+03  0.45471312044E+03  0.47000000000E+01 0.  1.
         -5    1    5    5    0  503  0.38743836515E+02 -0.25859863593E+02  0.52547887028E+03  0.52756037619E+03  0.47000000000E+01 0.  1.
<mgrwt>
<rscale>  0 0.27474153E+03</rscale>
<asrwt>0</asrwt>
<pdfrwt beam="1">  1        2 0.24149801E+00 0.27474153E+03</pdfrwt>
<pdfrwt beam="2">  1       -2 0.18494746E-02 0.27474153E+03</pdfrwt>
<totfact> 0.10862799E+04</totfact>
</mgrwt>
</event>
<event>
 9    1  0.2098759E-002  0.2753098E+03  0.7818608E-02  0.1098279E+00
          2   -1    0    0  501    0  0.00000000000E+00  0.00000000000E+00  0.26056406040E+03  0.26056406040E+03  0.00000000000E+00 0.  1.
         -2   -1    0    0    0  501 -0.00000000000E+00 -0.00000000000E+00 -0.72722498638E+02  0.72722498638E+02  0.00000000000E+00 0.  1.
         36    2    1    2    0    0  0.71054273576E-14 -0.71054273576E-14  0.18784156176E+03  0.33328655904E+03  0.27530978571E+03 0.  0.
         25    2    3    3    0    0  0.22742860352E+02 -0.31014087168E+02  0.47993686452E+02  0.13991403793E+03  0.12567192515E+03 0.  0.
         25    2    3    3    0    0 -0.22742860352E+02  0.31014087168E+02  0.13984787531E+03  0.19337252110E+03  0.12789211231E+03 0.  0.
          5    1    4    4  502    0  0.24916270962E+02  0.30911724435E+02  0.64256598596E+02  0.75679295248E+02  0.47000000000E+01 0. -1.
         -5    1    4    4    0  502 -0.21734106110E+01 -0.61925811602E+02 -0.16262912144E+02  0.64234742684E+02  0.47000000000E+01 0. -1.
          5    1    5    5  503    0 -0.65359203079E+02 -0.10919577696E+02  0.41958561968E+02  0.78572727626E+02  0.47000000000E+01 0.  1.
         -5    1    5    5    0  503  0.42616342727E+02  0.41933664864E+02  0.97889313340E+02  0.11479979348E+03  0.47000000000E+01 0.  1.
<mgrwt>
<rscale>  0 0.27530979E+03</rscale>
<asrwt>0</asrwt>
<pdfrwt beam="1">  1        2 0.40086778E-01 0.27530979E+03</pdfrwt>
<pdfrwt beam="2">  1       -2 0.11188077E-01 0.27530979E+03</pdfrwt>
<totfact> 0.70077604E+03</totfact>
</mgrwt>
</event>
<event>
 9    1  0.2098759E-002  0.2746092E+03  0.7818608E-02  0.1098670E+00
         -1   -1    0    0    0  501 -0.00000000000E+00  0.00000000000E+00  0.13038725017E+02  0.13038725017E+02  0.00000000000E+00 0.  1.
          1   -1    0    0  501    0  0.00000000000E+00 -0.00000000000E+00 -0.14458890363E+04  0.14458890363E+04  0.00000000000E+00 0.  1.
         36    2    1    2    0    0  0.00000000000E+00  0.00000000000E+00 -0.14328503113E+04  0.14589277613E+04  0.27460917355E+03 0.  0.
         25    2    3    3    0    0 -0.45835208681E+01 -0.10585731937E+02 -0.10201698456E+04  0.10280460397E+04  0.12648746760E+03 0.  0.
         25    2    3    3    0    0  0.45835208681E+01  0.10585731937E+02 -0.41268046570E+03  0.43088172165E+03  0.12337270725E+03 0.  0.
          5    1    4    4  502    0  0.16343766817E+02  0.12455607983E+02 -0.26425481609E+02  0.33803209349E+02  0.47000000000E+01 0. -1.
         -5    1    4    4    0  502 -0.20927287685E+02 -0.23041339920E+02 -0.99374436398E+03  0.99424283033E+03  0.47000000000E+01 0. -1.
          5    1    5    5  503    0  0.92777188277E+01 -0.55675192509E+02 -0.21231251657E+03  0.21973733824E+03  0.47000000000E+01 0.  1.
         -5    1    5    5    0  503 -0.46941979596E+01  0.66260924446E+02 -0.20036794913E+03  0.21114438340E+03  0.47000000000E+01 0.  1.
<mgrwt>
<rscale>  0 0.27460917E+03</rscale>
<asrwt>0</asrwt>
<pdfrwt beam="1">  1        1 0.22244440E+00 0.27460917E+03</pdfrwt>
<pdfrwt beam="2">  1       -1 0.20059583E-02 0.27460917E+03</pdfrwt>
<totfact> 0.53082005E+03</totfact>
</mgrwt>
</event>
<event>
 9    1  0.2098759E-002  0.2763717E+03  0.7818608E-02  0.1097687E+00
          1   -1    0    0  501    0  0.00000000000E+00  0.00000000000E+00  0.90252402836E+03  0.90252402836E+03  0.00000000000E+00 0.  1.
         -1   -1    0    0    0  501 -0.00000000000E+00 -0.00000000000E+00 -0.21157702932E+02  0.21157702932E+02  0.00000000000E+00 0.  1.
         36    2    1    2    0    0  0.00000000000E+00  0.00000000000E+00  0.88136632542E+03  0.92368173129E+03  0.27637174444E+03 0.  0.
         25    2    3    3    0    0  0.45614652789E+02 -0.40828312902E+02  0.53855521926E+03  0.55457136456E+03  0.11730313941E+03 0.  0.
         25    2    3    3    0    0 -0.45614652789E+02  0.40828312902E+02  0.34281110616E+03  0.36911036673E+03  0.12237385600E+03 0.  0.
          5    1    4    4  502    0  0.69902883108E+02 -0.39834846681E+02  0.20765688156E+03  0.22274806068E+03  0.47000000000E+01 0. -1.
         -5    1    4    4    0  502 -0.24288230319E+02 -0.99346622090E+00  0.33089833770E+03  0.33182330388E+03  0.47000000000E+01 0. -1.
          5    1    5    5  503    0  0.17727696480E+02 -0.12719103962E+02  0.21824133362E+03  0.21937961740E+03  0.47000000000E+01 0. -1.
         -5    1    5    5    0  503 -0.63342349269E+02  0.53547416864E+02  0.12456977254E+03  0.14973074933E+03  0.47000000000E+01 0. -1.
<mgrwt>
<rscale>  0 0.27637174E+03</rscale>
<asrwt>0</asrwt>
<pdfrwt beam="1">  1        1 0.13884982E+00 0.27637174E+03</pdfrwt>
<pdfrwt beam="2">  1       -1 0.32550319E-02 0.27637174E+03</pdfrwt>
<totfact> 0.63471122E+03</totfact>
</mgrwt>
</event>
<event>
 9    1  0.2098759E-002  0.2750236E+03  0.7818608E-02  0.1098438E+00
         -2   -1    0    0    0  501 -0.00000000000E+00  0.00000000000E+00  0.26525932419E+03  0.26525932419E+03  0.00000000000E+00 0.  1.
          2   -1    0    0  501    0  0.00000000000E+00 -0.00000000000E+00 -0.71286843977E+02  0.71286843977E+02  0.00000000000E+00 0.  1.
         36    2    1    2    0    0 -0.71054273576E-14 -0.71054273576E-14  0.19397248022E+03  0.33654616817E+03  0.27502363577E+03 0.  0.
         25    2    3    3    0    0 -0.49586696706E+02 -0.21827439954E+02  0.64370631290E+02  0.14799443916E+03  0.12175178940E+03 0.  0.
         25    2    3    3    0    0  0.49586696706E+02  0.21827439954E+02  0.12960184893E+03  0.18855172902E+03  0.12577693606E+03 0.  0.
          5    1    4    4  502    0  0.40606927044E+02 -0.39269434971E+01  0.16940977614E+02  0.44423306177E+02  0.47000000000E+01 0. -1.
         -5    1    4    4    0  502 -0.90193623750E+02 -0.17900496457E+02  0.47429653677E+02  0.10357113298E+03  0.47000000000E+01 0. -1.
          5    1    5    5  503    0  0.54542675562E+02  0.69664777716E+02  0.82113409540E+02  0.12080060736E+03  0.47000000000E+01 0. -1.
         -5    1    5    5    0  503 -0.49559788558E+01 -0.47837337762E+02  0.47488439386E+02  0.67751121658E+02  0.47000000000E+01 0. -1.
<mgrwt>
<rscale>  0 0.27502364E+03</rscale>
<asrwt>0</asrwt>
<pdfrwt beam="1">  1        2 0.10967207E-01 0.27502364E+03</pdfrwt>
<pdfrwt beam="2">  1       -2 0.40809126E-01 0.27502364E+03</pdfrwt>
<totfact> 0.32590704E+03</totfact>
</mgrwt>
</event>
<event>
 9    1  0.2098759E-002  0.2749214E+03  0.7818608E-02  0.1098496E+00
          1   -1    0    0  501    0  0.00000000000E+00  0.00000000000E+00  0.68076100035E+03  0.68076100035E+03  0.00000000000E+00 0. -1.
         -1   -1    0    0    0  501 -0.00000000000E+00 -0.00000000000E+00 -0.27756346321E+02  0.27756346321E+02  0.00000000000E+00 0. -1.
         36    2    1    2    0    0  0.00000000000E+00 -0.71054273576E-14  0.65300465403E+03  0.70851734668E+03  0.27492135667E+03 0.  0.
         25    2    3    3    0    0  0.44953913803E+02 -0.34989276343E+02  0.27499648729E+03  0.30776799541E+03  0.12590856665E+03 0.  0.
         25    2    3    3    0    0 -0.44953913803E+02  0.34989276343E+02  0.37800816675E+03  0.40074935126E+03  0.12026954971E+03 0.  0.
          5    1    4    4  502    0 -0.31556338032E+02  0.25135220690E+02  0.87762839345E+02  0.96705675940E+02  0.47000000000E+01 0. -1.
         -5    1    4    4    0  502  0.76510251835E+02 -0.60124497033E+02  0.18723364794E+03  0.21106231947E+03  0.47000000000E+01 0. -1.
          5    1    5    5  503    0 -0.79722811372E+01 -0.41014581578E+02  0.73325360651E+02  0.84524858374E+02  0.47000000000E+01 0. -1.
         -5    1    5    5    0  503 -0.36981632666E+02  0.76003857921E+02  0.30468280610E+03  0.31622449289E+03  0.47000000000E+01 0. -1.
<mgrwt>
<rscale>  0 0.27492136E+03</rscale>
<asrwt>0</asrwt>
<pdfrwt beam="1">  1        1 0.10473245E+00 0.27492136E+03</pdfrwt>
<pdfrwt beam="2">  1       -1 0.42702076E-02 0.27492136E+03</pdfrwt>
<totfact> 0.65299822E+03</totfact>
</mgrwt>
</event>
<event>
 9    1  0.2098759E-002  0.2747911E+03  0.7818608E-02  0.1098568E+00
         -2   -1    0    0    0  501 -0.00000000000E+00  0.00000000000E+00  0.21121780785E+03  0.21121780785E+03  0.00000000000E+00 0. -1.
          2   -1    0    0  501    0  0.00000000000E+00 -0.00000000000E+00 -0.89374773189E+02  0.89374773189E+02  0.00000000000E+00 0. -1.
         36    2    1    2    0    0 -0.71054273576E-14 -0.71054273576E-14  0.12184303466E+03  0.30059258104E+03  0.27479114739E+03 0.  0.
         25    2    3    3    0    0 -0.52631923119E+02 -0.21424253324E+02  0.54849969586E+02  0.14906494956E+03  0.12642279091E+03 0.  0.
         25    2    3    3    0    0  0.52631923119E+02  0.21424253324E+02  0.66993065078E+02  0.15152763148E+03  0.12346430404E+03 0.  0.
          5    1    4    4  502    0 -0.30487239106E+02  0.47673331506E+02  0.50882674535E+02  0.76245359550E+02  0.47000000000E+01 0.  1.
         -5    1    4    4    0  502 -0.22144684013E+02 -0.69097584829E+02  0.39672950506E+01  0.72819590011E+02  0.47000000000E+01 0.  1.
          5    1    5    5  503    0 -0.33533341113E+02  0.15977561673E+02  0.51521501687E+02  0.63689265809E+02  0.47000000000E+01 0. -1.
         -5    1    5    5    0  503  0.86165264232E+02  0.54466916507E+01  0.15471563392E+02  0.87838365672E+02  0.47000000000E+01 0. -1.
<mgrwt>
<rscale>  0 0.27479115E+03</rscale>
<asrwt>0</asrwt>
<pdfrwt beam="1">  1        2 0.13749965E-01 0.27479115E+03</pdfrwt>
<pdfrwt beam="2">  1       -2 0.32495047E-01 0.27479115E+03</pdfrwt>
<totfact> 0.37989358E+03</totfact>
</mgrwt>
</event>
<event>
 9    1  0.2098759E-002  0.2712539E+03  0.7818608E-02  0.1100564E+00
         -1   -1    0    0    0  501 -0.00000000000E+00  0.00000000000E+00  0.95702448571E+02  0.95702448571E+02  0.00000000000E+00 0.  1.
          1   -1    0    0  501    0  0.00000000000E+00 -0.00000000000E+00 -0.19220690517E+03  0.19220690517E+03  0.00000000000E+00 0.  1.
         36    2    1    2    0    0  0.14210854715E-13  0.00000000000E+00 -0.96504456600E+02  0.28790935374E+03  0.27125391394E+03 0.  0.
         25    2    3    3    0    0  0.35758290080E+02 -0.73536766659E+01 -0.10273834927E+02  0.13173031986E+03  0.12615305631E+03 0.  0.
         25    2    3    3    0    0 -0.35758290080E+02  0.73536766659E+01 -0.86230621673E+02  0.15617903388E+03  0.12499375440E+03 0.  0.
          5    1    4    4  502    0 -0.20374348375E+02 -0.20603642324E+01 -0.55470796337E+02  0.59316594801E+02  0.47000000000E+01 0. -1.
         -5    1    4    4    0  502  0.56132638455E+02 -0.52933124335E+01  0.45196961410E+02  0.72413725061E+02  0.47000000000E+01 0. -1.
          5    1    5    5  503    0  0.28735247727E+02 -0.16749308492E+02  0.12396766450E+02  0.35805357355E+02  0.47000000000E+01 0. -1.
         -5    1    5    5    0  503 -0.64493537807E+02  0.24102985158E+02 -0.98627388123E+02  0.12037367653E+03  0.47000000000E+01 0. -1.
<mgrwt>
<rscale>  0 0.27125391E+03</rscale>
<asrwt>0</asrwt>
<pdfrwt beam="1">  1        1 0.29570293E-01 0.27125391E+03</pdfrwt>
<pdfrwt beam="2">  1       -1 0.14723454E-01 0.27125391E+03</pdfrwt>
<totfact> 0.50696681E+03</totfact>
</mgrwt>
</event>
<event>
 9    1  0.2098759E-002  0.2748920E+03  0.7818608E-02  0.1098512E+00
         -2   -1    0    0    0  501 -0.00000000000E+00  0.00000000000E+00  0.45733974152E+03  0.45733974152E+03  0.00000000000E+00 0.  1.
          2   -1    0    0  501    0  0.00000000000E+00 -0.00000000000E+00 -0.41307140465E+02  0.41307140465E+02  0.00000000000E+00 0.  1.
         36    2    1    2    0    0  0.00000000000E+00  0.00000000000E+00  0.41603260105E+03  0.49864688198E+03  0.27489195654E+03 0.  0.
         25    2    3    3    0    0 -0.81650475261E-02  0.56256459015E+02  0.24745868063E+03  0.28172740323E+03  0.12235089646E+03 0.  0.
         25    2    3    3    0    0  0.81650475261E-02 -0.56256459015E+02  0.16857392042E+03  0.21691947875E+03  0.12438691397E+03 0.  0.
          5    1    4    4  502    0  0.22715891839E+02  0.97115916673E+01 -0.35411135168E+01  0.25395988653E+02  0.47000000000E+01 0.  1.
         -5    1    4    4    0  502 -0.22724056886E+02  0.46544867348E+02  0.25099979415E+03  0.25633141458E+03  0.47000000000E+01 0.  1.
          5    1    5    5  503    0  0.31411883268E+02 -0.59579503800E+02  0.28555307347E+02  0.73307020545E+02  0.47000000000E+01 0. -1.
         -5    1    5    5    0  503 -0.31403718221E+02  0.33230447848E+01  0.14001861308E+03  0.14361245821E+03  0.47000000000E+01 0. -1.
<mgrwt>
<rscale>  0 0.27489196E+03</rscale>
<asrwt>0</asrwt>
<pdfrwt beam="1">  1        2 0.63549450E-02 0.27489196E+03</pdfrwt>
<pdfrwt beam="2">  1       -2 0.70359957E-01 0.27489196E+03</pdfrwt>
<totfact> 0.21563672E+03</totfact>
</mgrwt>
</event>
<event>
 9    1  0.2098759E-002  0.2740524E+03  0.7818608E-02  0.1098982E+00
         -2   -1    0    0    0  501 -0.00000000000E+00  0.00000000000E+00  0.15063394524E+03  0.15063394524E+03  0.00000000000E+00 0.  1.
          2   -1    0    0  501    0  0.00000000000E+00 -0.00000000000E+00 -0.12464769628E+03  0.12464769628E+03  0.00000000000E+00 0.  1.
         36    2    1    2    0    0  0.35527136788E-14  0.00000000000E+00  0.25986248962E+02  0.27528164151E+03  0.27405236182E+03 0.  0.
         25    2    3    3    0    0 -0.23799023454E+02  0.11728855707E+01  0.54553546193E+02  0.13436601461E+03  0.12045898598E+03 0.  0.
         25    2    3    3    0    0  0.23799023454E+02 -0.11728855707E+01 -0.28567297231E+02  0.14091562690E+03  0.13591671809E+03 0.  0.
          5    1    4    4  502    0  0.17408992898E+01 -0.44240405583E+02  0.67138171593E+02  0.80559718851E+02  0.47000000000E+01 0.  1.
         -5    1    4    4    0  502 -0.25539922743E+02  0.45413291154E+02 -0.12584625400E+02  0.53806295762E+02  0.47000000000E+01 0.  1.
          5    1    5    5  503    0  0.69121500838E+02 -0.13978115393E+02 -0.52342774170E+02  0.87948994285E+02  0.47000000000E+01 0. -1.
         -5    1    5    5    0  503 -0.45322477384E+02  0.12805229822E+02  0.23775476938E+02  0.52966632616E+02  0.47000000000E+01 0. -1.
<mgrwt>
<rscale>  0 0.27405236E+03</rscale>
<asrwt>0</asrwt>
<pdfrwt beam="1">  1        2 0.19176569E-01 0.27405236E+03</pdfrwt>
<pdfrwt beam="2">  1       -2 0.23174453E-01 0.27405236E+03</pdfrwt>
<totfact> 0.47086608E+03</totfact>
</mgrwt>
</event>
<event>
 9    1  0.2098759E-002  0.2757316E+03  0.7818608E-02  0.1098043E+00
         -1   -1    0    0    0  501 -0.00000000000E+00  0.00000000000E+00  0.13478530501E+02  0.13478530501E+02  0.00000000000E+00 0. -1.
          1   -1    0    0  501    0  0.00000000000E+00 -0.00000000000E+00 -0.14101668141E+04  0.14101668141E+04  0.00000000000E+00 0. -1.
         36    2    1    2    0    0  0.00000000000E+00  0.00000000000E+00 -0.13966882836E+04  0.14236453446E+04  0.27573158264E+03 0.  0.
         25    2    3    3    0    0  0.54498374166E+01 -0.54010295525E+02 -0.77610947620E+03  0.78723100973E+03  0.12016626352E+03 0.  0.
         25    2    3    3    0    0 -0.54498374166E+01  0.54010295525E+02 -0.62057880743E+03  0.63641433490E+03  0.13022417856E+03 0.  0.
          5    1    4    4  502    0 -0.20221137612E+02 -0.74032903689E+02 -0.29031741905E+03  0.30032658729E+03  0.47000000000E+01 0.  1.
         -5    1    4    4    0  502  0.25670975029E+02  0.20022608164E+02 -0.48579205715E+03  0.48690442244E+03  0.47000000000E+01 0.  1.
          5    1    5    5  503    0  0.44078498172E+02  0.51699728814E+02 -0.17064415302E+03  0.18373157845E+03  0.47000000000E+01 0.  1.
         -5    1    5    5    0  503 -0.49528335589E+02  0.23105667108E+01 -0.44993465441E+03  0.45268275644E+03  0.47000000000E+01 0.  1.
<mgrwt>
<rscale>  0 0.27573158E+03</rscale>
<asrwt>0</asrwt>
<pdfrwt beam="1">  1        1 0.21694868E+00 0.27573158E+03</pdfrwt>
<pdfrwt beam="2">  1       -1 0.20736207E-02 0.27573158E+03</pdfrwt>
<totfact> 0.53430139E+03</totfact>
</mgrwt>
</event>
<event>
 9    1  0.2098759E-002  0.2749317E+03  0.7818608E-02  0.1098490E+00
         -2   -1    0    0    0  501 -0.00000000000E+00  0.00000000000E+00  0.44473516312E+02  0.44473516312E+02  0.00000000000E+00 0.  1.
          2   -1    0    0  501    0  0.00000000000E+00 -0.00000000000E+00 -0.42490138835E+03  0.42490138835E+03  0.00000000000E+00 0.  1.
         36    2    1    2    0    0  0.00000000000E+00 -0.35527136788E-14 -0.38042787204E+03  0.46937490467E+03  0.27493169207E+03 0.  0.
         25    2    3    3    0    0  0.56475958111E+02 -0.19517435290E+02 -0.14659963418E+03  0.20073760008E+03  0.12342474315E+03 0.  0.
         25    2    3    3    0    0 -0.56475958111E+02  0.19517435290E+02 -0.23382823786E+03  0.26863730458E+03  0.11798259391E+03 0.  0.
          5    1    4    4  502    0  0.48242023925E+02 -0.35253922128E+02 -0.16450527248E+03  0.17508342746E+03  0.47000000000E+01 0. -1.
         -5    1    4    4    0  502  0.82339341859E+01  0.15736486838E+02  0.17905638300E+02  0.25654172626E+02  0.47000000000E+01 0. -1.
          5    1    5    5  503    0 -0.29624757161E+02 -0.46204434587E+02 -0.14310446515E+03  0.15334097286E+03  0.47000000000E+01 0.  1.
         -5    1    5    5    0  503 -0.26851200950E+02  0.65721869877E+02 -0.90723772712E+02  0.11529633172E+03  0.47000000000E+01 0.  1.
<mgrwt>
<rscale>  0 0.27493169E+03</rscale>
<asrwt>0</asrwt>
<pdfrwt beam="1">  1        2 0.65369449E-01 0.27493169E+03</pdfrwt>
<pdfrwt beam="2">  1       -2 0.68420790E-02 0.27493169E+03</pdfrwt>
<totfact> 0.89598439E+03</totfact>
</mgrwt>
</event>
<event>
 9    1  0.2098759E-002  0.2753613E+03  0.7818608E-02  0.1098250E+00
          1   -1    0    0  501    0  0.00000000000E+00  0.00000000000E+00  0.24895585503E+02  0.24895585503E+02  0.00000000000E+00 0.  1.
         -1   -1    0    0    0  501 -0.00000000000E+00 -0.00000000000E+00 -0.76141854804E+03  0.76141854804E+03  0.00000000000E+00 0.  1.
         36    2    1    2    0    0 -0.35527136788E-14  0.00000000000E+00 -0.73652296254E+03  0.78631413354E+03  0.27536129406E+03 0.  0.
         25    2    3    3    0    0 -0.22131281001E+02 -0.44825029351E+01 -0.52823893991E+03  0.54360813231E+03  0.12634689328E+03 0.  0.
         25    2    3    3    0    0  0.22131281001E+02  0.44825029351E+01 -0.20828402263E+03  0.24270600124E+03  0.12253196531E+03 0.  0.
          5    1    4    4  502    0  0.22499362714E+02 -0.45304172479E+02 -0.38083347019E+03  0.38420686014E+03  0.47000000000E+01 0.  1.
         -5    1    4    4    0  502 -0.44630643715E+02  0.40821669544E+02 -0.14740546973E+03  0.15940127216E+03  0.47000000000E+01 0.  1.
          5    1    5    5  503    0  0.18939827410E+02  0.58504136919E+02 -0.65630622250E+02  0.90060644435E+02  0.47000000000E+01 0.  1.
         -5    1    5    5    0  503  0.31914535911E+01 -0.54021633984E+02 -0.14265340038E+03  0.15264535680E+03  0.47000000000E+01 0.  1.
<mgrwt>
<rscale>  0 0.27536129E+03</rscale>
<asrwt>0</asrwt>
<pdfrwt beam="1">  1        1 0.38300909E-02 0.27536129E+03</pdfrwt>
<pdfrwt beam="2">  1       -1 0.11714129E+00 0.27536129E+03</pdfrwt>
<totfact> 0.16915391E+03</totfact>
</mgrwt>
</event>
<event>
 9    1  0.2098759E-002  0.2747645E+03  0.7818608E-02  0.1098583E+00
         -2   -1    0    0    0  501 -0.00000000000E+00  0.00000000000E+00  0.70644300737E+01  0.70644300737E+01  0.00000000000E+00 0. -1.
          2   -1    0    0  501    0  0.00000000000E+00 -0.00000000000E+00 -0.26716788449E+04  0.26716788449E+04  0.00000000000E+00 0. -1.
         36    2    1    2    0    0 -0.35527136788E-14  0.35527136788E-14 -0.26646144148E+04  0.26787432749E+04  0.27476454195E+03 0.  0.
         25    2    3    3    0    0 -0.13498098980E+02 -0.15026551716E+02 -0.18401561606E+04  0.18442064295E+04  0.12047681775E+03 0.  0.
         25    2    3    3    0    0  0.13498098980E+02  0.15026551716E+02 -0.82445825423E+03  0.83453684539E+03  0.12771976123E+03 0.  0.
          5    1    4    4  502    0 -0.50120637206E+01  0.23409550839E+02 -0.80781573635E+02  0.84385309694E+02  0.47000000000E+01 0.  1.
         -5    1    4    4    0  502 -0.84860352596E+01 -0.38436102555E+02 -0.17593745869E+04  0.17598211198E+04  0.47000000000E+01 0.  1.
          5    1    5    5  503    0  0.41312047078E+02  0.59929700774E+02 -0.38099427404E+03  0.38791362585E+03  0.47000000000E+01 0. -1.
         -5    1    5    5    0  503 -0.27813948098E+02 -0.44903149058E+02 -0.44346398019E+03  0.44662321954E+03  0.47000000000E+01 0. -1.
<mgrwt>
<rscale>  0 0.27476454E+03</rscale>
<asrwt>0</asrwt>
<pdfrwt beam="1">  1        2 0.41102814E+00 0.27476454E+03</pdfrwt>
<pdfrwt beam="2">  1       -2 0.10868338E-02 0.27476454E+03</pdfrwt>
<totfact> 0.60841113E+03</totfact>
</mgrwt>
</event>
<event>
 9    1  0.2098759E-002  0.2754687E+03  0.7818608E-02  0.1098190E+00
          1   -1    0    0  501    0  0.00000000000E+00  0.00000000000E+00  0.91261656510E+02  0.91261656510E+02  0.00000000000E+00 0.  1.
         -1   -1    0    0    0  501 -0.00000000000E+00 -0.00000000000E+00 -0.20787211391E+03  0.20787211391E+03  0.00000000000E+00 0.  1.
         36    2    1    2    0    0  0.10658141036E-13  0.21316282073E-13 -0.11661045740E+03  0.29913377042E+03  0.27546871661E+03 0.  0.
         25    2    3    3    0    0 -0.20487591064E+02 -0.41386732045E+02 -0.26565450952E+02  0.13897092774E+03  0.12835338949E+03 0.  0.
         25    2    3    3    0    0  0.20487591064E+02  0.41386732045E+02 -0.90045006445E+02  0.16016284268E+03  0.12414278075E+03 0.  0.
          5    1    4    4  502    0 -0.68551712676E+02  0.56140104713E+01 -0.11095326000E+02  0.69828723914E+02  0.47000000000E+01 0.  1.
         -5    1    4    4    0  502  0.48064121612E+02 -0.47000742517E+02 -0.15470124953E+02  0.69142203823E+02  0.47000000000E+01 0.  1.
          5    1    5    5  503    0  0.44169714116E+02 -0.96083091830E+01 -0.93161067146E+02  0.10365499352E+03  0.47000000000E+01 0.  1.
         -5    1    5    5    0  503 -0.23682123052E+02  0.50995041228E+02  0.31160607008E+01  0.56507849158E+02  0.47000000000E+01 0.  1.
<mgrwt>
<rscale>  0 0.27546872E+03</rscale>
<asrwt>0</asrwt>
<pdfrwt beam="1">  1        1 0.14040255E-01 0.27546872E+03</pdfrwt>
<pdfrwt beam="2">  1       -1 0.31980325E-01 0.27546872E+03</pdfrwt>
<totfact> 0.37037762E+03</totfact>
</mgrwt>
</event>
<event>
 9    1  0.2098759E-002  0.2749050E+03  0.7818608E-02  0.1098505E+00
         -2   -1    0    0    0  501 -0.00000000000E+00  0.00000000000E+00  0.71378200210E+02  0.71378200210E+02  0.00000000000E+00 0.  1.
          2   -1    0    0  501    0  0.00000000000E+00 -0.00000000000E+00 -0.26469140597E+03  0.26469140597E+03  0.00000000000E+00 0.  1.
         36    2    1    2    0    0 -0.71054273576E-14  0.00000000000E+00 -0.19331320576E+03  0.33606960618E+03  0.27490504665E+03 0.  0.
         25    2    3    3    0    0  0.50047639765E+02 -0.13802389924E+02 -0.81470370988E+02  0.15914372738E+03  0.12646751520E+03 0.  0.
         25    2    3    3    0    0 -0.50047639765E+02  0.13802389924E+02 -0.11184283477E+03  0.17692587880E+03  0.12688055282E+03 0.  0.
          5    1    4    4  502    0 -0.10847924728E+02  0.42317987758E+02 -0.15575309895E+01  0.43965957985E+02  0.47000000000E+01 0.  1.
         -5    1    4    4    0  502  0.60895564493E+02 -0.56120377682E+02 -0.79912839998E+02  0.11517776939E+03  0.47000000000E+01 0.  1.
          5    1    5    5  503    0 -0.48593024623E+01  0.52551169844E+02 -0.10397612108E+03  0.11669773788E+03  0.47000000000E+01 0.  1.
         -5    1    5    5    0  503 -0.45188337303E+02 -0.38748779920E+02 -0.78667136884E+01  0.60228140912E+02  0.47000000000E+01 0.  1.
<mgrwt>
<rscale>  0 0.27490505E+03</rscale>
<asrwt>0</asrwt>
<pdfrwt beam="1">  1        2 0.40721755E-01 0.27490505E+03</pdfrwt>
<pdfrwt beam="2">  1       -2 0.10981262E-01 0.27490505E+03</pdfrwt>
<totfact> 0.70989480E+03</totfact>
</mgrwt>
</event>
<event>
 9    1  0.2098759E-002  0.2769707E+03  0.7818608E-02  0.1097355E+00
         -4   -1    0    0    0  501 -0.00000000000E+00  0.00000000000E+00  0.46090175041E+03  0.46090175041E+03  0.00000000000E+00 0. -1.
          4   -1    0    0  501    0  0.00000000000E+00 -0.00000000000E+00 -0.41610159143E+02  0.41610159143E+02  0.00000000000E+00 0. -1.
         36    2    1    2    0    0  0.00000000000E+00  0.71054273576E-14  0.41929159127E+03  0.50251190956E+03  0.27697072180E+03 0.  0.
         25    2    3    3    0    0 -0.25160036912E+02  0.34983311892E+02  0.10517300285E+03  0.16100260785E+03  0.11403341457E+03 0.  0.
         25    2    3    3    0    0  0.25160036912E+02 -0.34983311892E+02  0.31411858843E+03  0.34150930171E+03  0.12689072461E+03 0.  0.
          5    1    4    4  502    0  0.43044722390E+01  0.23696192847E+02  0.12233971923E+03  0.12477633965E+03  0.47000000000E+01 0.  1.
         -5    1    4    4    0  502 -0.29464509151E+02  0.11287119045E+02 -0.17166716382E+02  0.36226268193E+02  0.47000000000E+01 0.  1.
          5    1    5    5  503    0  0.55318303248E+02  0.28667744347E+02  0.12752665934E+03  0.14201089072E+03  0.47000000000E+01 0. -1.
         -5    1    5    5    0  503 -0.30158266337E+02 -0.63651056239E+02  0.18659192909E+03  0.19949841099E+03  0.47000000000E+01 0. -1.
<mgrwt>
<rscale>  0 0.27697072E+03</rscale>
<asrwt>0</asrwt>
<pdfrwt beam="1">  1        4 0.64015633E-02 0.27697072E+03</pdfrwt>
<pdfrwt beam="2">  1       -4 0.70907958E-01 0.27697072E+03</pdfrwt>
<totfact> 0.55486695E+02</totfact>
</mgrwt>
</event>
<event>
 9    1  0.2098759E-002  0.2756094E+03  0.7818608E-02  0.1098111E+00
          1   -1    0    0  501    0  0.00000000000E+00  0.00000000000E+00  0.14786684296E+04  0.14786684296E+04  0.00000000000E+00 0.  1.
         -1   -1    0    0    0  501 -0.00000000000E+00 -0.00000000000E+00 -0.12842723717E+02  0.12842723717E+02  0.00000000000E+00 0.  1.
         36    2    1    2    0    0 -0.71054273576E-14  0.71054273576E-14  0.14658257059E+04  0.14915111533E+04  0.27560936204E+03 0.  0.
         25    2    3    3    0    0 -0.34399814801E+02  0.33818644498E+02  0.88173590858E+03  0.89202591841E+03  0.12619421011E+03 0.  0.
         25    2    3    3    0    0  0.34399814801E+02 -0.33818644498E+02  0.58408979731E+03  0.59948523492E+03  0.12607381799E+03 0.  0.
          5    1    4    4  502    0 -0.69445279616E+02  0.58783154057E+02  0.63883134983E+03  0.64529504073E+03  0.47000000000E+01 0. -1.
         -5    1    4    4    0  502  0.35045464815E+02 -0.24964509560E+02  0.24290455875E+03  0.24673087769E+03  0.47000000000E+01 0. -1.
          5    1    5    5  503    0  0.61264411185E+02 -0.53733353254E+02  0.52597709304E+03  0.53227304434E+03  0.47000000000E+01 0. -1.
         -5    1    5    5    0  503 -0.26864596384E+02  0.19914708757E+02  0.58112704276E+02  0.67212190576E+02  0.47000000000E+01 0. -1.
<mgrwt>
<rscale>  0 0.27560936E+03</rscale>
<asrwt>0</asrwt>
<pdfrwt beam="1">  1        1 0.22748732E+00 0.27560936E+03</pdfrwt>
<pdfrwt beam="2">  1       -1 0.19758048E-02 0.27560936E+03</pdfrwt>
<totfact> 0.51611827E+03</totfact>
</mgrwt>
</event>
<event>
 9    1  0.2098759E-002  0.2730415E+03  0.7818608E-02  0.1099551E+00
          1   -1    0    0  501    0  0.00000000000E+00  0.00000000000E+00  0.16352507664E+03  0.16352507664E+03  0.00000000000E+00 0. -1.
         -1   -1    0    0    0  501 -0.00000000000E+00 -0.00000000000E+00 -0.11397584353E+03  0.11397584353E+03  0.00000000000E+00 0. -1.
         36    2    1    2    0    0 -0.14210854715E-13  0.00000000000E+00  0.49549233112E+02  0.27750092018E+03  0.27304145143E+03 0.  0.
         25    2    3    3    0    0  0.62314638420E+02  0.10117779853E+02 -0.15324094078E+02  0.14126320075E+03  0.12543915018E+03 0.  0.
         25    2    3    3    0    0 -0.62314638420E+02 -0.10117779853E+02  0.64873327190E+02  0.13623771942E+03  0.10181691403E+03 0.  0.
          5    1    4    4  502    0  0.50868272042E+02 -0.31239019368E+02 -0.55974594101E+02  0.81967692516E+02  0.47000000000E+01 0. -1.
         -5    1    4    4    0  502  0.11446366378E+02  0.41356799221E+02  0.40650500024E+02  0.59295508239E+02  0.47000000000E+01 0. -1.
          5    1    5    5  503    0 -0.17329756345E+02 -0.21978821572E+02 -0.23110727074E+02  0.36600338230E+02  0.47000000000E+01 0. -1.
         -5    1    5    5    0  503 -0.44984882075E+02  0.11861041719E+02  0.87984054264E+02  0.99637381191E+02  0.47000000000E+01 0. -1.
<mgrwt>
<rscale>  0 0.27304145E+03</rscale>
<asrwt>0</asrwt>
<pdfrwt beam="1">  1        1 0.25157704E-01 0.27304145E+03</pdfrwt>
<pdfrwt beam="2">  1       -1 0.17534745E-01 0.27304145E+03</pdfrwt>
<totfact> 0.47092816E+03</totfact>
</mgrwt>
</event>
<event>
 9    1  0.2098759E-002  0.2754945E+03  0.7818608E-02  0.1098176E+00
         -2   -1    0    0    0  501 -0.00000000000E+00  0.00000000000E+00  0.18733627325E+02  0.18733627325E+02  0.00000000000E+00 0. -1.
          2   -1    0    0  501    0  0.00000000000E+00 -0.00000000000E+00 -0.10128473140E+04  0.10128473140E+04  0.00000000000E+00 0. -1.
         36    2    1    2    0    0 -0.88817841970E-15  0.71054273576E-14 -0.99411368666E+03  0.10315809413E+04  0.27549449444E+03 0.  0.
         25    2    3    3    0    0  0.35298296622E+00 -0.46899259459E+02 -0.60769727952E+03  0.62217224567E+03  0.12491058648E+03 0.  0.
         25    2    3    3    0    0 -0.35298296622E+00  0.46899259459E+02 -0.38641640714E+03  0.40940869564E+03  0.12687858457E+03 0.  0.
          5    1    4    4  502    0  0.65240540106E+01  0.42707141332E+02 -0.19222067689E+03  0.19707192044E+03  0.47000000000E+01 0. -1.
         -5    1    4    4    0  502 -0.61710710444E+01 -0.89606400792E+02 -0.41547660263E+03  0.42510032523E+03  0.47000000000E+01 0. -1.
          5    1    5    5  503    0  0.62990473845E+02  0.24690508970E+02 -0.20396742833E+03  0.21494702335E+03  0.47000000000E+01 0. -1.
         -5    1    5    5    0  503 -0.63343456812E+02  0.22208750490E+02 -0.18244897882E+03  0.19446167229E+03  0.47000000000E+01 0. -1.
<mgrwt>
<rscale>  0 0.27549449E+03</rscale>
<asrwt>0</asrwt>
<pdfrwt beam="1">  1        2 0.15582271E+00 0.27549449E+03</pdfrwt>
<pdfrwt beam="2">  1       -2 0.28820957E-02 0.27549449E+03</pdfrwt>
<totfact> 0.11567232E+04</totfact>
</mgrwt>
</event>
<event>
 9    1  0.2098759E-002  0.2748394E+03  0.7818608E-02  0.1098541E+00
          1   -1    0    0  501    0  0.00000000000E+00  0.00000000000E+00  0.16314541840E+04  0.16314541840E+04  0.00000000000E+00 0.  1.
         -1   -1    0    0    0  501 -0.00000000000E+00 -0.00000000000E+00 -0.11575059112E+02  0.11575059112E+02  0.00000000000E+00 0.  1.
         36    2    1    2    0    0  0.71054273576E-14 -0.71054273576E-14  0.16198791249E+04  0.16430292431E+04  0.27483943399E+03 0.  0.
         25    2    3    3    0    0  0.23564936116E+02 -0.58146603446E+02  0.88710251439E+03  0.89827103133E+03  0.12650549785E+03 0.  0.
         25    2    3    3    0    0 -0.23564936116E+02  0.58146603446E+02  0.73277661054E+03  0.74475821182E+03  0.11733243122E+03 0.  0.
          5    1    4    4  502    0 -0.25022948642E+02 -0.70344096647E+02  0.30671274041E+03  0.31570434749E+03  0.47000000000E+01 0. -1.
         -5    1    4    4    0  502  0.48587884758E+02  0.12197493201E+02  0.58038977397E+03  0.58256668384E+03  0.47000000000E+01 0. -1.
          5    1    5    5  503    0  0.37331978255E+02  0.59707815660E+02  0.33884053289E+03  0.34611226009E+03  0.47000000000E+01 0.  1.
         -5    1    5    5    0  503 -0.60896914371E+02 -0.15612122139E+01  0.39393607764E+03  0.39864595173E+03  0.47000000000E+01 0.  1.
<mgrwt>
<rscale>  0 0.27483943E+03</rscale>
<asrwt>0</asrwt>
<pdfrwt beam="1">  1        1 0.25099277E+00 0.27483943E+03</pdfrwt>
<pdfrwt beam="2">  1       -1 0.17807796E-02 0.27483943E+03</pdfrwt>
<totfact> 0.47632795E+03</totfact>
</mgrwt>
</event>
<event>
 9    1  0.2098759E-002  0.2737542E+03  0.7818608E-02  0.1099150E+00
          2   -1    0    0  501    0  0.00000000000E+00  0.00000000000E+00  0.15649132225E+04  0.15649132225E+04  0.00000000000E+00 0.  1.
         -2   -1    0    0    0  501 -0.00000000000E+00 -0.00000000000E+00 -0.11972129199E+02  0.11972129199E+02  0.00000000000E+00 0.  1.
         36    2    1    2    0    0  0.00000000000E+00 -0.71054273576E-14  0.15529410933E+04  0.15768853517E+04  0.27375422031E+03 0.  0.
         25    2    3    3    0    0 -0.37532018673E+02  0.17870705012E+02  0.95614883638E+03  0.96629300034E+03  0.13331748080E+03 0.  0.
         25    2    3    3    0    0  0.37532018673E+02 -0.17870705012E+02  0.59679225693E+03  0.61059235136E+03  0.12220477521E+03 0.  0.
          5    1    4    4  502    0 -0.25210943001E+01  0.73090674781E+02  0.45248742534E+03  0.45838364145E+03  0.47000000000E+01 0.  1.
         -5    1    4    4    0  502 -0.35010924373E+02 -0.55219969768E+02  0.50366141104E+03  0.50790935890E+03  0.47000000000E+01 0.  1.
          5    1    5    5  503    0  0.26603465548E+02  0.13058226570E+02  0.28658241831E+02  0.41492728100E+02  0.47000000000E+01 0.  1.
         -5    1    5    5    0  503  0.10928553125E+02 -0.30928931583E+02  0.56813401509E+03  0.56909962326E+03  0.47000000000E+01 0.  1.
<mgrwt>
<rscale>  0 0.27375422E+03</rscale>
<asrwt>0</asrwt>
<pdfrwt beam="1">  1        2 0.24075572E+00 0.27375422E+03</pdfrwt>
<pdfrwt beam="2">  1       -2 0.18418673E-02 0.27375422E+03</pdfrwt>
<totfact> 0.10992680E+04</totfact>
</mgrwt>
</event>
<event>
 9    1  0.2098759E-002  0.2735376E+03  0.7818608E-02  0.1099272E+00
         -2   -1    0    0    0  501 -0.00000000000E+00  0.00000000000E+00  0.57706225885E+02  0.57706225885E+02  0.00000000000E+00 0.  1.
          2   -1    0    0  501    0  0.00000000000E+00 -0.00000000000E+00 -0.32415402745E+03  0.32415402745E+03  0.00000000000E+00 0.  1.
         36    2    1    2    0    0 -0.71054273576E-14  0.00000000000E+00 -0.26644780157E+03  0.38186025334E+03  0.27353760641E+03 0.  0.
         25    2    3    3    0    0 -0.45070732864E+02  0.52293496518E+01 -0.18056379360E+03  0.22387360131E+03  0.12432774730E+03 0.  0.
         25    2    3    3    0    0  0.45070732864E+02 -0.52293496518E+01 -0.85884007970E+02  0.15798665203E+03  0.12459936731E+03 0.  0.
          5    1    4    4  502    0 -0.66577440393E+02  0.85629089829E+01 -0.18856706002E+03  0.20021364865E+03  0.47000000000E+01 0. -1.
         -5    1    4    4    0  502  0.21506707529E+02 -0.33335593312E+01  0.80032664253E+01  0.23659952664E+02  0.47000000000E+01 0. -1.
          5    1    5    5  503    0  0.29760485125E+02 -0.33956528911E+02  0.18140422709E+02  0.48886575526E+02  0.47000000000E+01 0.  1.
         -5    1    5    5    0  503  0.15310247739E+02  0.28727179259E+02 -0.10402443068E+03  0.10910007650E+03  0.47000000000E+01 0.  1.
<mgrwt>
<rscale>  0 0.27353761E+03</rscale>
<asrwt>0</asrwt>
<pdfrwt beam="1">  1        2 0.49869849E-01 0.27353761E+03</pdfrwt>
<pdfrwt beam="2">  1       -2 0.88778811E-02 0.27353761E+03</pdfrwt>
<totfact> 0.79994238E+03</totfact>
</mgrwt>
</event>
<event>
 9    1  0.2098759E-002  0.2743690E+03  0.7818608E-02  0.1098805E+00
         -2   -1    0    0    0  501 -0.00000000000E+00  0.00000000000E+00  0.12304429864E+02  0.12304429864E+02  0.00000000000E+00 0.  1.
          2   -1    0    0  501    0  0.00000000000E+00 -0.00000000000E+00 -0.15294970567E+04  0.15294970567E+04  0.00000000000E+00 0.  1.
         36    2    1    2    0    0  0.71054273576E-14  0.00000000000E+00 -0.15171926268E+04  0.15418014865E+04  0.27436901619E+03 0.  0.
         25    2    3    3    0    0 -0.36604007398E+02  0.52885273965E+01 -0.51374774808E+03  0.53011856098E+03  0.12538388316E+03 0.  0.
         25    2    3    3    0    0  0.36604007398E+02 -0.52885273965E+01 -0.10034448787E+04  0.10116829255E+04  0.12342161617E+03 0.  0.
          5    1    4    4  502    0  0.10650971554E+02 -0.27983469220E+02 -0.41117919682E+03  0.41229472425E+03  0.47000000000E+01 0. -1.
         -5    1    4    4    0  502 -0.47254978951E+02  0.33271996617E+02 -0.10256855126E+03  0.11782383673E+03  0.47000000000E+01 0. -1.
          5    1    5    5  503    0  0.69665479698E+01  0.19960195083E+02 -0.27752613765E+02  0.35202837232E+02  0.47000000000E+01 0. -1.
         -5    1    5    5    0  503  0.29637459428E+02 -0.25248722479E+02 -0.97569226496E+03  0.97648008832E+03  0.47000000000E+01 0. -1.
<mgrwt>
<rscale>  0 0.27436902E+03</rscale>
<asrwt>0</asrwt>
<pdfrwt beam="1">  1        2 0.23530728E+00 0.27436902E+03</pdfrwt>
<pdfrwt beam="2">  1       -2 0.18929889E-02 0.27436902E+03</pdfrwt>
<totfact> 0.11028482E+04</totfact>
</mgrwt>
</event>
<event>
 9    1  0.2098759E-002  0.2761203E+03  0.7818608E-02  0.1097827E+00
          2   -1    0    0  501    0  0.00000000000E+00  0.00000000000E+00  0.20435991831E+02  0.20435991831E+02  0.00000000000E+00 0. -1.
         -2   -1    0    0    0  501 -0.00000000000E+00 -0.00000000000E+00 -0.93269785236E+03  0.93269785236E+03  0.00000000000E+00 0. -1.
         36    2    1    2    0    0 -0.17763568394E-14 -0.71054273576E-14 -0.91226186053E+03  0.95313384419E+03  0.27612030488E+03 0.  0.
         25    2    3    3    0    0 -0.97741886172E+01 -0.44824904805E+02 -0.60149594386E+03  0.61520902754E+03  0.12074754755E+03 0.  0.
         25    2    3    3    0    0  0.97741886172E+01  0.44824904805E+02 -0.31076591667E+03  0.33792481665E+03  0.12455087269E+03 0.  0.
          5    1    4    4  502    0 -0.28375385862E+02 -0.53912491657E+02 -0.13448734949E+03  0.14771816562E+03  0.47000000000E+01 0.  1.
         -5    1    4    4    0  502  0.18601197245E+02  0.90875868521E+01 -0.46700859437E+03  0.46749086193E+03  0.47000000000E+01 0.  1.
          5    1    5    5  503    0 -0.26794186365E+01  0.32543632842E+02 -0.71334464468E+01  0.33752679612E+02  0.47000000000E+01 0. -1.
         -5    1    5    5    0  503  0.12453607254E+02  0.12281271963E+02 -0.30363247022E+03  0.30417213704E+03  0.47000000000E+01 0. -1.
<mgrwt>
<rscale>  0 0.27612030E+03</rscale>
<asrwt>0</asrwt>
<pdfrwt beam="1">  1        2 0.31439982E-02 0.27612030E+03</pdfrwt>
<pdfrwt beam="2">  1       -2 0.14349200E+00 0.27612030E+03</pdfrwt>
<totfact> 0.10449056E+03</totfact>
</mgrwt>
</event>
<event>
 9    1  0.2098759E-002  0.2753432E+03  0.7818608E-02  0.1098260E+00
         -2   -1    0    0    0  501 -0.00000000000E+00  0.00000000000E+00  0.45697721756E+03  0.45697721756E+03  0.00000000000E+00 0.  1.
          2   -1    0    0  501    0  0.00000000000E+00 -0.00000000000E+00 -0.41475738406E+02  0.41475738406E+02  0.00000000000E+00 0.  1.
         36    2    1    2    0    0  0.00000000000E+00  0.00000000000E+00  0.41550147916E+03  0.49845295597E+03  0.27534318610E+03 0.  0.
         25    2    3    3    0    0 -0.53846327106E+02 -0.19762515727E+02  0.17910370786E+03  0.22525968068E+03  0.12399113517E+03 0.  0.
         25    2    3    3    0    0  0.53846327106E+02  0.19762515727E+02  0.23639777129E+03  0.27319327529E+03  0.12434096436E+03 0.  0.
          5    1    4    4  502    0 -0.62200050182E+02 -0.58566885329E+02  0.75125068650E+02  0.11386304159E+03  0.47000000000E+01 0. -1.
         -5    1    4    4    0  502  0.83537230757E+01  0.38804369602E+02  0.10397863921E+03  0.11139663910E+03  0.47000000000E+01 0. -1.
          5    1    5    5  503    0  0.52813256353E+02 -0.26141363001E+02  0.39836369474E+02  0.71285603308E+02  0.47000000000E+01 0.  1.
         -5    1    5    5    0  503  0.10330707532E+01  0.45903878728E+02  0.19656140182E+03  0.20190767198E+03  0.47000000000E+01 0.  1.
<mgrwt>
<rscale>  0 0.27534319E+03</rscale>
<asrwt>0</asrwt>
<pdfrwt beam="1">  1        2 0.63808831E-02 0.27534319E+03</pdfrwt>
<pdfrwt beam="2">  1       -2 0.70304184E-01 0.27534319E+03</pdfrwt>
<totfact> 0.21487484E+03</totfact>
</mgrwt>
</event>
<event>
 9    1  0.2098759E-002  0.2748400E+03  0.7818608E-02  0.1098541E+00
         -2   -1    0    0    0  501 -0.00000000000E+00  0.00000000000E+00  0.14337936769E+03  0.14337936769E+03  0.00000000000E+00 0.  1.
          2   -1    0    0  501    0  0.00000000000E+00 -0.00000000000E+00 -0.13170833103E+03  0.13170833103E+03  0.00000000000E+00 0.  1.
         36    2    1    2    0    0  0.71054273576E-14  0.00000000000E+00  0.11671036652E+02  0.27508769872E+03  0.27484000599E+03 0.  0.
         25    2    3    3    0    0 -0.23499591094E+02 -0.35066944825E+02 -0.93254968759E+01  0.13477430362E+03  0.12765275799E+03 0.  0.
         25    2    3    3    0    0  0.23499591094E+02  0.35066944825E+02  0.20996533528E+02  0.14031339510E+03  0.13215548806E+03 0.  0.
          5    1    4    4  502    0  0.46021778913E+02  0.15749462484E+01  0.20450786259E+02  0.50604439020E+02  0.47000000000E+01 0.  1.
         -5    1    4    4    0  502 -0.69521370007E+02 -0.36641891073E+02 -0.29776283135E+02  0.84169864598E+02  0.47000000000E+01 0.  1.
          5    1    5    5  503    0  0.56504379631E+02  0.76137018875E+01 -0.36905512656E+02  0.68079514087E+02  0.47000000000E+01 0. -1.
         -5    1    5    5    0  503 -0.33004788537E+02  0.27453242937E+02  0.57902046184E+02  0.72233881014E+02  0.47000000000E+01 0. -1.
<mgrwt>
<rscale>  0 0.27484001E+03</rscale>
<asrwt>0</asrwt>
<pdfrwt beam="1">  1        2 0.20262820E-01 0.27484001E+03</pdfrwt>
<pdfrwt beam="2">  1       -2 0.22058364E-01 0.27484001E+03</pdfrwt>
<totfact> 0.48169878E+03</totfact>
</mgrwt>
</event>
<event>
 9    1  0.2098759E-002  0.2760446E+03  0.7818608E-02  0.1097869E+00
          2   -1    0    0  501    0  0.00000000000E+00  0.00000000000E+00  0.19714379696E+04  0.19714379696E+04  0.00000000000E+00 0. -1.
         -2   -1    0    0    0  501 -0.00000000000E+00 -0.00000000000E+00 -0.96630792854E+01  0.96630792854E+01  0.00000000000E+00 0. -1.
         36    2    1    2    0    0  0.71054273576E-14  0.00000000000E+00  0.19617748903E+04  0.19811010489E+04  0.27604464426E+03 0.  0.
         25    2    3    3    0    0  0.32156879003E+02  0.76641623677E+01  0.62917495049E+03  0.64231341840E+03  0.12495040969E+03 0.  0.
         25    2    3    3    0    0 -0.32156879003E+02 -0.76641623677E+01  0.13325999398E+04  0.13387876305E+04  0.12424538488E+03 0.  0.
          5    1    4    4  502    0 -0.34394930965E+02 -0.33186484915E+02  0.30958843577E+03  0.31329130792E+03  0.47000000000E+01 0.  1.
         -5    1    4    4    0  502  0.66551809967E+02  0.40850647283E+02  0.31958651472E+03  0.32902211048E+03  0.47000000000E+01 0.  1.
          5    1    5    5  503    0 -0.52892046981E+01 -0.18477844552E+02  0.30491784642E+02  0.36348938861E+02  0.47000000000E+01 0.  1.
         -5    1    5    5    0  503 -0.26867674305E+02  0.10813682184E+02  0.13021081552E+04  0.13024386916E+04  0.47000000000E+01 0.  1.
<mgrwt>
<rscale>  0 0.27604464E+03</rscale>
<asrwt>0</asrwt>
<pdfrwt beam="1">  1        2 0.30329783E+00 0.27604464E+03</pdfrwt>
<pdfrwt beam="2">  1       -2 0.14866291E-02 0.27604464E+03</pdfrwt>
<totfact> 0.91941351E+03</totfact>
</mgrwt>
</event>
<event>
 9    1  0.2098759E-002  0.2744694E+03  0.7818608E-02  0.1098749E+00
          2   -1    0    0  501    0  0.00000000000E+00  0.00000000000E+00  0.12615500289E+02  0.12615500289E+02  0.00000000000E+00 0. -1.
         -2   -1    0    0    0  501 -0.00000000000E+00 -0.00000000000E+00 -0.14928747168E+04  0.14928747168E+04  0.00000000000E+00 0. -1.
         36    2    1    2    0    0  0.35527136788E-14 -0.35527136788E-14 -0.14802592165E+04  0.15054902171E+04  0.27446938934E+03 0.  0.
         25    2    3    3    0    0  0.76617168781E+01  0.77641225125E+01 -0.42996547493E+03  0.44827002350E+03  0.12631991463E+03 0.  0.
         25    2    3    3    0    0 -0.76617168781E+01 -0.77641225125E+01 -0.10502937415E+04  0.10572201936E+04  0.12032709847E+03 0.  0.
          5    1    4    4  502    0  0.42732910222E+02  0.22835492202E+02 -0.38917174306E+03  0.39220440706E+03  0.47000000000E+01 0.  1.
         -5    1    4    4    0  502 -0.35071193344E+02 -0.15071369689E+02 -0.40793731872E+02  0.56065616441E+02  0.47000000000E+01 0.  1.
          5    1    5    5  503    0  0.26589348849E+02 -0.47216040031E+02 -0.77931845124E+03  0.78121423845E+03  0.47000000000E+01 0.  1.
         -5    1    5    5    0  503 -0.34251065727E+02  0.39451917519E+02 -0.27097529030E+03  0.27600595511E+03  0.47000000000E+01 0.  1.
<mgrwt>
<rscale>  0 0.27446939E+03</rscale>
<asrwt>0</asrwt>
<pdfrwt beam="1">  1        2 0.19408464E-02 0.27446939E+03</pdfrwt>
<pdfrwt beam="2">  1       -2 0.22967301E+00 0.27446939E+03</pdfrwt>
<totfact> 0.54077550E+02</totfact>
</mgrwt>
</event>
<event>
 8    1  0.2098759E-002  0.2507157E+03  0.7818608E-02  0.1112853E+00
         -2   -1    0    0    0  501 -0.00000000000E+00  0.00000000000E+00  0.14576160470E+02  0.14576160470E+02  0.00000000000E+00 0. -1.
          2   -1    0    0  501    0  0.00000000000E+00 -0.00000000000E+00 -0.10781018188E+04  0.10781018188E+04  0.00000000000E+00 0. -1.
         25    2    1    2    0    0  0.66787176272E+01 -0.17002249927E+02 -0.45733335898E+03  0.47343941996E+03  0.12106775526E+03 0.  0.
         25    2    1    2    0    0 -0.66787176272E+01  0.17002249927E+02 -0.60619229937E+03  0.61923855933E+03  0.12511437877E+03 0.  0.
          5    1    3    3  502    0 -0.11447262431E+02 -0.55113367122E+02 -0.11132637566E+03  0.12483659308E+03  0.47000000000E+01 0.  1.
         -5    1    3    3    0  502  0.18125980058E+02  0.38111117195E+02 -0.34600698332E+03  0.34860282689E+03  0.47000000000E+01 0.  1.
          5    1    4    4  503    0  0.33016635895E+01  0.60289007791E+02 -0.50508561459E+03  0.50870348290E+03  0.47000000000E+01 0. -1.
         -5    1    4    4    0  503 -0.99803812167E+01 -0.43286757864E+02 -0.10110668478E+03  0.11053507644E+03  0.47000000000E+01 0. -1.
<mgrwt>
<rscale>  0 0.25071566E+03</rscale>
<asrwt>0</asrwt>
<pdfrwt beam="1">  1        2 0.16586181E+00 0.25071566E+03</pdfrwt>
<pdfrwt beam="2">  1       -2 0.22424863E-02 0.25071566E+03</pdfrwt>
<totfact> 0.15271970E+04</totfact>
</mgrwt>
</event>
<event>
 9    1  0.2098759E-002  0.2753074E+03  0.7818608E-02  0.1098280E+00
         -2   -1    0    0    0  501 -0.00000000000E+00  0.00000000000E+00  0.26691044957E+02  0.26691044957E+02  0.00000000000E+00 0.  1.
          2   -1    0    0  501    0  0.00000000000E+00 -0.00000000000E+00 -0.70992111435E+03  0.70992111435E+03  0.00000000000E+00 0.  1.
         36    2    1    2    0    0 -0.71054273576E-14  0.00000000000E+00 -0.68323006939E+03  0.73661215931E+03  0.27530736553E+03 0.  0.
         25    2    3    3    0    0  0.38370447185E+02 -0.52239685743E+02 -0.39846729593E+03  0.42179238302E+03  0.12219391334E+03 0.  0.
         25    2    3    3    0    0 -0.38370447185E+02  0.52239685743E+02 -0.28476277346E+03  0.31481977629E+03  0.11756010553E+03 0.  0.
          5    1    4    4  502    0  0.72887210753E+02 -0.22142044826E+01 -0.16422792414E+03  0.17975079767E+03  0.47000000000E+01 0. -1.
         -5    1    4    4    0  502 -0.34516763568E+02 -0.50025481260E+02 -0.23423937179E+03  0.24204158535E+03  0.47000000000E+01 0. -1.
          5    1    5    5  503    0 -0.18317173578E+02 -0.98800316173E+01 -0.22556920448E+03  0.22657601348E+03  0.47000000000E+01 0. -1.
         -5    1    5    5    0  503 -0.20053273607E+02  0.62119717360E+02 -0.59193568977E+02  0.88243762814E+02  0.47000000000E+01 0. -1.
<mgrwt>
<rscale>  0 0.27530737E+03</rscale>
<asrwt>0</asrwt>
<pdfrwt beam="1">  1        2 0.10921863E+00 0.27530737E+03</pdfrwt>
<pdfrwt beam="2">  1       -2 0.41063147E-02 0.27530737E+03</pdfrwt>
<totfact> 0.10846659E+04</totfact>
</mgrwt>
</event>
<event>
 9    1  0.2098759E-002  0.2760322E+03  0.7818608E-02  0.1097876E+00
          1   -1    0    0  501    0  0.00000000000E+00  0.00000000000E+00  0.13606619285E+04  0.13606619285E+04  0.00000000000E+00 0.  1.
         -1   -1    0    0    0  501 -0.00000000000E+00 -0.00000000000E+00 -0.13999398606E+02  0.13999398606E+02  0.00000000000E+00 0.  1.
         36    2    1    2    0    0  0.35527136788E-14 -0.88817841970E-15  0.13466625299E+04  0.13746613272E+04  0.27603223511E+03 0.  0.
         25    2    3    3    0    0  0.75762792661E+01  0.35147871895E+01  0.40885874428E+03  0.42860575361E+03  0.12832640227E+03 0.  0.
         25    2    3    3    0    0 -0.75762792661E+01 -0.35147871895E+01  0.93780378567E+03  0.94605557355E+03  0.12440037817E+03 0.  0.
          5    1    4    4  502    0  0.48080955867E+02  0.44459960698E+02  0.15646947253E+03  0.16968574559E+03  0.47000000000E+01 0.  1.
         -5    1    4    4    0  502 -0.40504676601E+02 -0.40945173509E+02  0.25238927175E+03  0.25892000802E+03  0.47000000000E+01 0.  1.
          5    1    5    5  503    0 -0.37544434482E+02 -0.38873849492E+00  0.89073974503E+02  0.96778089524E+02  0.47000000000E+01 0.  1.
         -5    1    5    5    0  503  0.29968155216E+02 -0.31260486946E+01  0.84872981116E+03  0.84927748402E+03  0.47000000000E+01 0.  1.
<mgrwt>
<rscale>  0 0.27603224E+03</rscale>
<asrwt>0</asrwt>
<pdfrwt beam="1">  1        1 0.20933250E+00 0.27603224E+03</pdfrwt>
<pdfrwt beam="2">  1       -1 0.21537547E-02 0.27603224E+03</pdfrwt>
<totfact> 0.54578084E+03</totfact>
</mgrwt>
</event>
<event>
 9    1  0.2098759E-002  0.2746640E+03  0.7818608E-02  0.1098640E+00
          1   -1    0    0  501    0  0.00000000000E+00  0.00000000000E+00  0.15318844432E+03  0.15318844432E+03  0.00000000000E+00 0.  1.
         -1   -1    0    0    0  501 -0.00000000000E+00 -0.00000000000E+00 -0.12311680820E+03  0.12311680820E+03  0.00000000000E+00 0.  1.
         36    2    1    2    0    0  0.00000000000E+00  0.17763568394E-14  0.30071636122E+02  0.27630525252E+03  0.27466395700E+03 0.  0.
         25    2    3    3    0    0  0.32022791664E+02  0.68098984601E+01  0.74652188917E+02  0.14939947345E+03  0.12520151539E+03 0.  0.
         25    2    3    3    0    0 -0.32022791664E+02 -0.68098984601E+01 -0.44580552796E+02  0.12690577907E+03  0.11421828737E+03 0.  0.
          5    1    4    4  502    0  0.29282572960E+02 -0.11866112102E+01  0.10938748758E+03  0.11334279670E+03  0.47000000000E+01 0.  1.
         -5    1    4    4    0  502  0.27402187035E+01  0.79965096703E+01 -0.34735298660E+02  0.36056676753E+02  0.47000000000E+01 0.  1.
          5    1    5    5  503    0  0.45016438937E+01  0.47794167954E+02 -0.36627793512E+02  0.60565935522E+02  0.47000000000E+01 0. -1.
         -5    1    5    5    0  503 -0.36524435558E+02 -0.54604066414E+02 -0.79527592836E+01  0.66339843548E+02  0.47000000000E+01 0. -1.
<mgrwt>
<rscale>  0 0.27466396E+03</rscale>
<asrwt>0</asrwt>
<pdfrwt beam="1">  1        1 0.23567453E-01 0.27466396E+03</pdfrwt>
<pdfrwt beam="2">  1       -1 0.18941047E-01 0.27466396E+03</pdfrwt>
<totfact> 0.45204017E+03</totfact>
</mgrwt>
</event>
<event>
 9    1  0.2098759E-002  0.2727690E+03  0.7818608E-02  0.1099705E+00
         -1   -1    0    0    0  501 -0.00000000000E+00  0.00000000000E+00  0.91554873432E+02  0.91554873432E+02  0.00000000000E+00 0.  1.
          1   -1    0    0  501    0  0.00000000000E+00 -0.00000000000E+00 -0.20316478202E+03  0.20316478202E+03  0.00000000000E+00 0.  1.
         36    2    1    2    0    0 -0.71054273576E-14 -0.35527136788E-14 -0.11160990859E+03  0.29471965546E+03  0.27276895647E+03 0.  0.
         25    2    3    3    0    0  0.33065392169E+02  0.18868405849E+02 -0.88535165296E+02  0.16057838724E+03  0.12844300704E+03 0.  0.
         25    2    3    3    0    0 -0.33065392169E+02 -0.18868405849E+02 -0.23074743298E+02  0.13414126821E+03  0.12653892350E+03 0.  0.
          5    1    4    4  502    0  0.19269660790E+02  0.55513145357E+02 -0.10291425107E+03  0.11860211721E+03  0.47000000000E+01 0. -1.
         -5    1    4    4    0  502  0.13795731379E+02 -0.36644739508E+02  0.14379085774E+02  0.41976270030E+02  0.47000000000E+01 0. -1.
          5    1    5    5  503    0  0.39413384710E+02  0.40150644160E+01  0.22091885208E+02  0.45603476058E+02  0.47000000000E+01 0. -1.
         -5    1    5    5    0  503 -0.72478776878E+02 -0.22883470265E+02 -0.45166628506E+02  0.88537792155E+02  0.47000000000E+01 0. -1.
<mgrwt>
<rscale>  0 0.27276896E+03</rscale>
<asrwt>0</asrwt>
<pdfrwt beam="1">  1        1 0.31256120E-01 0.27276896E+03</pdfrwt>
<pdfrwt beam="2">  1       -1 0.14085365E-01 0.27276896E+03</pdfrwt>
<totfact> 0.50714256E+03</totfact>
</mgrwt>
</event>
<event>
 9    1  0.2098759E-002  0.2748602E+03  0.7818608E-02  0.1098530E+00
         -1   -1    0    0    0  501 -0.00000000000E+00  0.00000000000E+00  0.28661979031E+03  0.28661979031E+03  0.00000000000E+00 0. -1.
          1   -1    0    0  501    0  0.00000000000E+00 -0.00000000000E+00 -0.65895794636E+02  0.65895794636E+02  0.00000000000E+00 0. -1.
         36    2    1    2    0    0  0.00000000000E+00 -0.17763568394E-14  0.22072399568E+03  0.35251558495E+03  0.27486024697E+03 0.  0.
         25    2    3    3    0    0  0.38572134497E+02 -0.11257942356E+02  0.41213329911E+02  0.13486241458E+03  0.12196221332E+03 0.  0.
         25    2    3    3    0    0 -0.38572134497E+02  0.11257942356E+02  0.17951066577E+03  0.21765317037E+03  0.11633689278E+03 0.  0.
          5    1    4    4  502    0  0.77303722611E+02  0.16334221104E+02  0.15702854380E+02  0.80692886578E+02  0.47000000000E+01 0.  1.
         -5    1    4    4    0  502 -0.38731588114E+02 -0.27592163460E+02  0.25510475531E+02  0.54169528003E+02  0.47000000000E+01 0.  1.
          5    1    5    5  503    0  0.19856029514E+02  0.21253271748E+02  0.14691914947E+03  0.14984421894E+03  0.47000000000E+01 0.  1.
         -5    1    5    5    0  503 -0.58428164011E+02 -0.99953293923E+01  0.32591516295E+02  0.67808951428E+02  0.47000000000E+01 0.  1.
<mgrwt>
<rscale>  0 0.27486025E+03</rscale>
<asrwt>0</asrwt>
<pdfrwt beam="1">  1        1 0.10137815E-01 0.27486025E+03</pdfrwt>
<pdfrwt beam="2">  1       -1 0.44095352E-01 0.27486025E+03</pdfrwt>
<totfact> 0.32472419E+03</totfact>
</mgrwt>
</event>
<event>
 9    1  0.2098759E-002  0.2749171E+03  0.7818608E-02  0.1098498E+00
         -3   -1    0    0    0  501 -0.00000000000E+00  0.00000000000E+00  0.59300832535E+03  0.59300832535E+03  0.00000000000E+00 0.  1.
          3   -1    0    0  501    0  0.00000000000E+00 -0.00000000000E+00 -0.31862711763E+02  0.31862711763E+02  0.00000000000E+00 0.  1.
         36    2    1    2    0    0 -0.44408920985E-14 -0.35527136788E-14  0.56114561359E+03  0.62487103711E+03  0.27491710273E+03 0.  0.
         25    2    3    3    0    0  0.53518395825E+01 -0.27548655546E+01  0.15733161673E+03  0.20248841767E+03  0.12732670653E+03 0.  0.
         25    2    3    3    0    0 -0.53518395825E+01  0.27548655546E+01  0.40381399685E+03  0.42238261944E+03  0.12371378938E+03 0.  0.
          5    1    4    4  502    0 -0.44308747877E+01  0.46669988299E+02  0.12028421866E+02  0.48626056717E+02  0.47000000000E+01 0.  1.
         -5    1    4    4    0  502  0.97827143702E+01 -0.49424853854E+02  0.14530319487E+03  0.15386236095E+03  0.47000000000E+01 0.  1.
          5    1    5    5  503    0  0.27747693425E+02  0.18858587597E+02  0.25880664818E+02  0.42631908567E+02  0.47000000000E+01 0. -1.
         -5    1    5    5    0  503 -0.33099533008E+02 -0.16103722043E+02  0.37793333203E+03  0.37975071088E+03  0.47000000000E+01 0. -1.
<mgrwt>
<rscale>  0 0.27491710E+03</rscale>
<asrwt>0</asrwt>
<pdfrwt beam="1">  1        3 0.49019561E-02 0.27491710E+03</pdfrwt>
<pdfrwt beam="2">  1       -3 0.91232042E-01 0.27491710E+03</pdfrwt>
<totfact> 0.66549065E+02</totfact>
</mgrwt>
</event>
<event>
 9    1  0.2098759E-002  0.2737861E+03  0.7818608E-02  0.1099132E+00
          2   -1    0    0  501    0  0.00000000000E+00  0.00000000000E+00  0.86248658062E+03  0.86248658062E+03  0.00000000000E+00 0. -1.
         -2   -1    0    0    0  501 -0.00000000000E+00 -0.00000000000E+00 -0.21727537174E+02  0.21727537174E+02  0.00000000000E+00 0. -1.
         36    2    1    2    0    0  0.35527136788E-14  0.00000000000E+00  0.84075904345E+03  0.88421411780E+03  0.27378611537E+03 0.  0.
         25    2    3    3    0    0 -0.84952879780E+01  0.20679401127E+02  0.57164468738E+03  0.58708458026E+03  0.13187436527E+03 0.  0.
         25    2    3    3    0    0  0.84952879780E+01 -0.20679401127E+02  0.26911435607E+03  0.29712953754E+03  0.12395006208E+03 0.  0.
          5    1    4    4  502    0 -0.15454872901E+02  0.42150101410E+02  0.55894261509E+03  0.56076235707E+03  0.47000000000E+01 0.  1.
         -5    1    4    4    0  502  0.69595849232E+01 -0.21470700283E+02  0.12702072294E+02  0.26322223187E+02  0.47000000000E+01 0.  1.
          5    1    5    5  503    0  0.51760816933E+02 -0.28032593008E+02  0.23219804497E+03  0.23958929552E+03  0.47000000000E+01 0.  1.
         -5    1    5    5    0  503 -0.43265528955E+02  0.73531918803E+01  0.36916311095E+02  0.57540242018E+02  0.47000000000E+01 0.  1.
<mgrwt>
<rscale>  0 0.27378612E+03</rscale>
<asrwt>0</asrwt>
<pdfrwt beam="1">  1        2 0.13269022E+00 0.27378612E+03</pdfrwt>
<pdfrwt beam="2">  1       -2 0.33426987E-02 0.27378612E+03</pdfrwt>
<totfact> 0.11545341E+04</totfact>
</mgrwt>
</event>
<event>
 9    1  0.2098759E-002  0.2751025E+03  0.7818608E-02  0.1098394E+00
          1   -1    0    0  501    0  0.00000000000E+00  0.00000000000E+00  0.12813257170E+04  0.12813257170E+04  0.00000000000E+00 0. -1.
         -1   -1    0    0    0  501 -0.00000000000E+00 -0.00000000000E+00 -0.14766228204E+02  0.14766228204E+02  0.00000000000E+00 0. -1.
         36    2    1    2    0    0 -0.17763568394E-14 -0.14210854715E-13  0.12665594888E+04  0.12960919452E+04  0.27510251137E+03 0.  0.
         25    2    3    3    0    0  0.12864548259E+02  0.33704602836E+02  0.79661165524E+03  0.80700119679E+03  0.12393266520E+03 0.  0.
         25    2    3    3    0    0 -0.12864548259E+02 -0.33704602836E+02  0.46994783355E+03  0.48909074841E+03  0.13060358749E+03 0.  0.
          5    1    4    4  502    0  0.22337523943E+02 -0.37821046025E+02  0.48967121876E+03  0.49165983056E+03  0.47000000000E+01 0. -1.
         -5    1    4    4    0  502 -0.94729756839E+01  0.71525648861E+02  0.30694043647E+03  0.31534136623E+03  0.47000000000E+01 0. -1.
          5    1    5    5  503    0  0.20257008231E+02  0.45150501841E+02  0.16245850910E+03  0.16989341181E+03  0.47000000000E+01 0.  1.
         -5    1    5    5    0  503 -0.33121556490E+02 -0.78855104677E+02  0.30748932445E+03  0.31919733659E+03  0.47000000000E+01 0.  1.
<mgrwt>
<rscale>  0 0.27510251E+03</rscale>
<asrwt>0</asrwt>
<pdfrwt beam="1">  1        1 0.19712695E+00 0.27510251E+03</pdfrwt>
<pdfrwt beam="2">  1       -1 0.22717284E-02 0.27510251E+03</pdfrwt>
<totfact> 0.57160443E+03</totfact>
</mgrwt>
</event>
<event>
 9    1  0.2098759E-002  0.2751162E+03  0.7818608E-02  0.1098387E+00
         -2   -1    0    0    0  501 -0.00000000000E+00  0.00000000000E+00  0.32506789619E+01  0.32506789619E+01  0.00000000000E+00 0. -1.
          2   -1    0    0  501    0  0.00000000000E+00 -0.00000000000E+00 -0.58210079039E+04  0.58210079039E+04  0.00000000000E+00 0. -1.
         36    2    1    2    0    0  0.00000000000E+00 -0.14210854715E-13 -0.58177572249E+04  0.58242585829E+04  0.27511617859E+03 0.  0.
         25    2    3    3    0    0  0.10444174995E+02 -0.71499440211E+02 -0.27875201136E+04  0.27911245815E+04  0.12201145241E+03 0.  0.
         25    2    3    3    0    0 -0.10444174995E+02  0.71499440211E+02 -0.30302371113E+04  0.30331340014E+04  0.11110206593E+03 0.  0.
          5    1    4    4  502    0  0.31403394762E+02  0.24157557671E+02 -0.54269281178E+03  0.54415745768E+03  0.47000000000E+01 0. -1.
         -5    1    4    4    0  502 -0.20959219767E+02 -0.95656997881E+02 -0.22448273019E+04  0.22469671238E+04  0.47000000000E+01 0. -1.
          5    1    5    5  503    0 -0.45189900810E+02  0.79214842553E+02 -0.17371379188E+04  0.17395365352E+04  0.47000000000E+01 0. -1.
         -5    1    5    5    0  503  0.34745725815E+02 -0.77154023420E+01 -0.12930991925E+04  0.12935974662E+04  0.47000000000E+01 0. -1.
<mgrwt>
<rscale>  0 0.27511618E+03</rscale>
<asrwt>0</asrwt>
<pdfrwt beam="1">  1        2 0.89554544E+00 0.27511618E+03</pdfrwt>
<pdfrwt beam="2">  1       -2 0.50010124E-03 0.27511618E+03</pdfrwt>
<totfact> 0.11979943E+01</totfact>
</mgrwt>
</event>
<event>
 9    1  0.2098759E-002  0.2787114E+03  0.7818608E-02  0.1096395E+00
          1   -1    0    0  501    0  0.00000000000E+00  0.00000000000E+00  0.92266085782E+02  0.92266085782E+02  0.00000000000E+00 0.  1.
         -1   -1    0    0    0  501 -0.00000000000E+00 -0.00000000000E+00 -0.21047827307E+03  0.21047827307E+03  0.00000000000E+00 0.  1.
         36    2    1    2    0    0  0.00000000000E+00  0.00000000000E+00 -0.11821218729E+03  0.30274435885E+03  0.27871136610E+03 0.  0.
         25    2    3    3    0    0 -0.22234903523E+02  0.56924988401E+02 -0.10389119618E+03  0.16799149145E+03  0.11701673092E+03 0.  0.
         25    2    3    3    0    0  0.22234903523E+02 -0.56924988401E+02 -0.14320991109E+02  0.13475286741E+03  0.11924092942E+03 0.  0.
          5    1    4    4  502    0  0.43007092844E+02  0.31429795542E+02 -0.74915658086E+02  0.92042859089E+02  0.47000000000E+01 0.  1.
         -5    1    4    4    0  502 -0.65241996367E+02  0.25495192860E+02 -0.28975538095E+02  0.75948632357E+02  0.47000000000E+01 0.  1.
          5    1    5    5  503    0 -0.81815831352E+01  0.35206975612E+02  0.73144152849E+00  0.36456747538E+02  0.47000000000E+01 0. -1.
         -5    1    5    5    0  503  0.30416486658E+02 -0.92131964013E+02 -0.15052432638E+02  0.98296119872E+02  0.47000000000E+01 0. -1.
<mgrwt>
<rscale>  0 0.27871137E+03</rscale>
<asrwt>0</asrwt>
<pdfrwt beam="1">  1        1 0.14194782E-01 0.27871137E+03</pdfrwt>
<pdfrwt beam="2">  1       -1 0.32381273E-01 0.27871137E+03</pdfrwt>
<totfact> 0.35746505E+03</totfact>
</mgrwt>
</event>
<event>
 9    1  0.2098759E-002  0.2743942E+03  0.7818608E-02  0.1098791E+00
         -2   -1    0    0    0  501 -0.00000000000E+00  0.00000000000E+00  0.12171991323E+02  0.12171991323E+02  0.00000000000E+00 0.  1.
          2   -1    0    0  501    0  0.00000000000E+00 -0.00000000000E+00 -0.15464232380E+04  0.15464232380E+04  0.00000000000E+00 0.  1.
         36    2    1    2    0    0  0.71054273576E-14 -0.71054273576E-14 -0.15342512467E+04  0.15585952293E+04  0.27439424363E+03 0.  0.
         25    2    3    3    0    0  0.13014381531E+02  0.44031484070E+02 -0.56281328298E+03  0.57677140622E+03  0.11746624121E+03 0.  0.
         25    2    3    3    0    0 -0.13014381531E+02 -0.44031484070E+02 -0.97143796372E+03  0.98182382312E+03  0.13482639420E+03 0.  0.
          5    1    4    4  502    0  0.55518884735E+02  0.23680574603E+02 -0.15807412335E+03  0.16927089132E+03  0.47000000000E+01 0.  1.
         -5    1    4    4    0  502 -0.42504503204E+02  0.20350909466E+02 -0.40473915963E+03  0.40750051491E+03  0.47000000000E+01 0.  1.
          5    1    5    5  503    0 -0.66000150223E+02 -0.17266412465E+02 -0.72816252052E+03  0.73136645747E+03  0.47000000000E+01 0. -1.
         -5    1    5    5    0  503  0.52985768692E+02 -0.26765071604E+02 -0.24327544320E+03  0.25045736565E+03  0.47000000000E+01 0. -1.
<mgrwt>
<rscale>  0 0.27439424E+03</rscale>
<asrwt>0</asrwt>
<pdfrwt beam="1">  1        2 0.23791114E+00 0.27439424E+03</pdfrwt>
<pdfrwt beam="2">  1       -2 0.18726150E-02 0.27439424E+03</pdfrwt>
<totfact> 0.10974896E+04</totfact>
</mgrwt>
</event>
<event>
 9    1  0.2098759E-002  0.2750191E+03  0.7818608E-02  0.1098441E+00
         -3   -1    0    0    0  501 -0.00000000000E+00  0.00000000000E+00  0.54118845689E+03  0.54118845689E+03  0.00000000000E+00 0. -1.
          3   -1    0    0  501    0  0.00000000000E+00 -0.00000000000E+00 -0.34939532141E+02  0.34939532141E+02  0.00000000000E+00 0. -1.
         36    2    1    2    0    0  0.00000000000E+00  0.35527136788E-14  0.50624892475E+03  0.57612798903E+03  0.27501906468E+03 0.  0.
         25    2    3    3    0    0  0.38697051089E+02  0.21568768234E+02  0.18303745246E+03  0.22810391570E+03  0.12870902777E+03 0.  0.
         25    2    3    3    0    0 -0.38697051089E+02 -0.21568768234E+02  0.32321147229E+03  0.34802407333E+03  0.12121231898E+03 0.  0.
          5    1    4    4  502    0 -0.10634771095E+02  0.21387367147E+02  0.17643965848E+03  0.17811109150E+03  0.47000000000E+01 0. -1.
         -5    1    4    4    0  502  0.49331822184E+02  0.18140108638E+00  0.65977939782E+01  0.49992824203E+02  0.47000000000E+01 0. -1.
          5    1    5    5  503    0 -0.41387080237E+02  0.26315387046E+02  0.48562202468E+02  0.69179241933E+02  0.47000000000E+01 0. -1.
         -5    1    5    5    0  503  0.26900291478E+01 -0.47884155280E+02  0.27464926982E+03  0.27884483139E+03  0.47000000000E+01 0. -1.
<mgrwt>
<rscale>  0 0.27501906E+03</rscale>
<asrwt>0</asrwt>
<pdfrwt beam="1">  1        3 0.53753130E-02 0.27501906E+03</pdfrwt>
<pdfrwt beam="2">  1       -3 0.83259756E-01 0.27501906E+03</pdfrwt>
<totfact> 0.70425972E+02</totfact>
</mgrwt>
</event>
<event>
 9    1  0.2098759E-002  0.2753671E+03  0.7818608E-02  0.1098247E+00
         -1   -1    0    0    0  501 -0.00000000000E+00  0.00000000000E+00  0.21785466106E+04  0.21785466106E+04  0.00000000000E+00 0.  1.
          1   -1    0    0  501    0  0.00000000000E+00 -0.00000000000E+00 -0.87015602537E+01  0.87015602537E+01  0.00000000000E+00 0.  1.
         36    2    1    2    0    0 -0.35527136788E-14  0.00000000000E+00  0.21698450504E+04  0.21872481709E+04  0.27536706120E+03 0.  0.
         25    2    3    3    0    0  0.14742512475E+02  0.49993957622E+02  0.81754607230E+03  0.82797750877E+03  0.12020165232E+03 0.  0.
         25    2    3    3    0    0 -0.14742512475E+02 -0.49993957622E+02  0.13522989781E+04  0.13592706621E+04  0.12722998589E+03 0.  0.
          5    1    4    4  502    0  0.57057818331E+02 -0.91488100863E+01  0.38299213742E+03  0.38735560236E+03  0.47000000000E+01 0. -1.
         -5    1    4    4    0  502 -0.42315305856E+02  0.59142767709E+02  0.43455393488E+03  0.44062190641E+03  0.47000000000E+01 0. -1.
          5    1    5    5  503    0  0.82761201662E+01  0.37901606222E+02  0.23057768928E+03  0.23386574506E+03  0.47000000000E+01 0.  1.
         -5    1    5    5    0  503 -0.23018632641E+02 -0.87895563844E+02  0.11217212888E+04  0.11254049171E+04  0.47000000000E+01 0.  1.
<mgrwt>
<rscale>  0 0.27536706E+03</rscale>
<asrwt>0</asrwt>
<pdfrwt beam="1">  1        1 0.13387033E-02 0.27536706E+03</pdfrwt>
<pdfrwt beam="2">  1       -1 0.33516058E+00 0.27536706E+03</pdfrwt>
<totfact> 0.24819276E+02</totfact>
</mgrwt>
</event>
<event>
 9    1  0.2098759E-002  0.2741143E+03  0.7818608E-02  0.1098948E+00
          1   -1    0    0  501    0  0.00000000000E+00  0.00000000000E+00  0.80446853405E+03  0.80446853405E+03  0.00000000000E+00 0. -1.
         -1   -1    0    0    0  501 -0.00000000000E+00 -0.00000000000E+00 -0.23350400692E+02  0.23350400692E+02  0.00000000000E+00 0. -1.
         36    2    1    2    0    0 -0.71054273576E-14  0.00000000000E+00  0.78111813336E+03  0.82781893474E+03  0.27411430181E+03 0.  0.
         25    2    3    3    0    0  0.51249015367E+02 -0.13787342455E+02  0.39396092807E+03  0.41653693290E+03  0.12442367636E+03 0.  0.
         25    2    3    3    0    0 -0.51249015367E+02  0.13787342455E+02  0.38715720529E+03  0.41128200184E+03  0.12824052028E+03 0.  0.
          5    1    4    4  502    0  0.46936710906E+02 -0.27398230970E+02  0.39739219966E+03  0.40111889539E+03  0.47000000000E+01 0.  1.
         -5    1    4    4    0  502  0.43123044604E+01  0.13610888515E+02 -0.34312715900E+01  0.15418037510E+02  0.47000000000E+01 0.  1.
          5    1    5    5  503    0  0.42911338938E+02  0.17473181541E+01  0.10471855940E+03  0.11328063741E+03  0.47000000000E+01 0.  1.
         -5    1    5    5    0  503 -0.94160354305E+02  0.12040024301E+02  0.28243864589E+03  0.29800136443E+03  0.47000000000E+01 0.  1.
<mgrwt>
<rscale>  0 0.27411430E+03</rscale>
<asrwt>0</asrwt>
<pdfrwt beam="1">  1        1 0.12376437E+00 0.27411430E+03</pdfrwt>
<pdfrwt beam="2">  1       -1 0.35923700E-02 0.27411430E+03</pdfrwt>
<totfact> 0.65808521E+03</totfact>
</mgrwt>
</event>
<event>
 9    1  0.2098759E-002  0.2717003E+03  0.7818608E-02  0.1100310E+00
          3   -1    0    0  501    0  0.00000000000E+00  0.00000000000E+00  0.15382907598E+02  0.15382907598E+02  0.00000000000E+00 0.  1.
         -3   -1    0    0    0  501 -0.00000000000E+00 -0.00000000000E+00 -0.11997255433E+04  0.11997255433E+04  0.00000000000E+00 0.  1.
         36    2    1    2    0    0  0.00000000000E+00  0.00000000000E+00 -0.11843426357E+04  0.12151084509E+04  0.27170032886E+03 0.  0.
         25    2    3    3    0    0  0.74766830306E+02  0.13902301414E+02 -0.57235220552E+03  0.59136181559E+03  0.12782173870E+03 0.  0.
         25    2    3    3    0    0 -0.74766830306E+02 -0.13902301414E+02 -0.61199043020E+03  0.62374663532E+03  0.93510563668E+02 0.  0.
          5    1    4    4  502    0 -0.34671570727E+02 -0.28168352391E+01 -0.19263839496E+03  0.19581035108E+03  0.47000000000E+01 0. -1.
         -5    1    4    4    0  502  0.10943840103E+03  0.16719136653E+02 -0.37971381056E+03  0.39555146452E+03  0.47000000000E+01 0. -1.
          5    1    5    5  503    0 -0.71641673004E+02 -0.25054353400E+02 -0.60431214545E+03  0.60907758871E+03  0.47000000000E+01 0. -1.
         -5    1    5    5    0  503 -0.31251573027E+01  0.11152051987E+02 -0.76782847545E+01  0.14669046610E+02  0.47000000000E+01 0. -1.
<mgrwt>
<rscale>  0 0.27170033E+03</rscale>
<asrwt>0</asrwt>
<pdfrwt beam="1">  1        3 0.23666015E-02 0.27170033E+03</pdfrwt>
<pdfrwt beam="2">  1       -3 0.18457314E+00 0.27170033E+03</pdfrwt>
<totfact> 0.37035093E+02</totfact>
</mgrwt>
</event>
<event>
 9    1  0.2098759E-002  0.2683173E+03  0.7818608E-02  0.1102247E+00
          2   -1    0    0  501    0  0.00000000000E+00  0.00000000000E+00  0.59369818285E+03  0.59369818285E+03  0.00000000000E+00 0.  1.
         -2   -1    0    0    0  501 -0.00000000000E+00 -0.00000000000E+00 -0.30315970707E+02  0.30315970707E+02  0.00000000000E+00 0.  1.
         36    2    1    2    0    0  0.00000000000E+00 -0.35527136788E-14  0.56338221215E+03  0.62401415356E+03  0.26831725043E+03 0.  0.
         25    2    3    3    0    0  0.14729698450E+02  0.28835880101E+02  0.18745084671E+03  0.22743444826E+03  0.12466008314E+03 0.  0.
         25    2    3    3    0    0 -0.14729698450E+02 -0.28835880101E+02  0.37593136544E+03  0.39657970530E+03  0.12207620216E+03 0.  0.
          5    1    4    4  502    0  0.59908676626E+02  0.49125085843E+02  0.13028693465E+03  0.15165453813E+03  0.47000000000E+01 0.  1.
         -5    1    4    4    0  502 -0.45178978176E+02 -0.20289205742E+02  0.57163912053E+02  0.75779910134E+02  0.47000000000E+01 0.  1.
          5    1    5    5  503    0  0.43932936414E+02 -0.46783548955E+02  0.20833113415E+03  0.21804301138E+03  0.47000000000E+01 0.  1.
         -5    1    5    5    0  503 -0.58662634863E+02  0.17947668855E+02  0.16760023129E+03  0.17853669391E+03  0.47000000000E+01 0.  1.
<mgrwt>
<rscale>  0 0.26831725E+03</rscale>
<asrwt>0</asrwt>
<pdfrwt beam="1">  1        2 0.91338173E-01 0.26831725E+03</pdfrwt>
<pdfrwt beam="2">  1       -2 0.46639959E-02 0.26831725E+03</pdfrwt>
<totfact> 0.11053512E+04</totfact>
</mgrwt>
</event>
<event>
 9    1  0.2098759E-002  0.2750028E+03  0.7818608E-02  0.1098450E+00
          3   -1    0    0  501    0  0.00000000000E+00  0.00000000000E+00  0.11346665562E+04  0.11346665562E+04  0.00000000000E+00 0. -1.
         -3   -1    0    0    0  501 -0.00000000000E+00 -0.00000000000E+00 -0.16662719727E+02  0.16662719727E+02  0.00000000000E+00 0. -1.
         36    2    1    2    0    0  0.00000000000E+00 -0.71054273576E-14  0.11180038365E+04  0.11513292759E+04  0.27500276951E+03 0.  0.
         25    2    3    3    0    0  0.10739392333E+02  0.27368800597E+02  0.56297236709E+03  0.57692285630E+03  0.12262834184E+03 0.  0.
         25    2    3    3    0    0 -0.10739392333E+02 -0.27368800597E+02  0.55503146938E+03  0.57440641962E+03  0.14497729859E+03 0.  0.
          5    1    4    4  502    0  0.11157185902E+02  0.75629250301E+02  0.30799806256E+03  0.31737857968E+03  0.47000000000E+01 0.  1.
         -5    1    4    4    0  502 -0.41779356903E+00 -0.48260449704E+02  0.25497430454E+03  0.25954427663E+03  0.47000000000E+01 0.  1.
          5    1    5    5  503    0  0.37455353952E+02  0.36578973590E+02  0.35534184909E+03  0.35920863654E+03  0.47000000000E+01 0. -1.
         -5    1    5    5    0  503 -0.48194746285E+02 -0.63947774187E+02  0.19968962029E+03  0.21519778308E+03  0.47000000000E+01 0. -1.
<mgrwt>
<rscale>  0 0.27500277E+03</rscale>
<asrwt>0</asrwt>
<pdfrwt beam="1">  1        3 0.17456403E+00 0.27500277E+03</pdfrwt>
<pdfrwt beam="2">  1       -3 0.25634962E-02 0.27500277E+03</pdfrwt>
<totfact> 0.38256693E+02</totfact>
</mgrwt>
</event>
<event>
 9    1  0.2098759E-002  0.2751540E+03  0.7818608E-02  0.1098366E+00
          2   -1    0    0  501    0  0.00000000000E+00  0.00000000000E+00  0.23034294785E+03  0.23034294785E+03  0.00000000000E+00 0. -1.
         -2   -1    0    0    0  501 -0.00000000000E+00 -0.00000000000E+00 -0.82170667167E+02  0.82170667167E+02  0.00000000000E+00 0. -1.
         36    2    1    2    0    0  0.71054273576E-14 -0.35527136788E-14  0.14817228069E+03  0.31251361502E+03  0.27515402016E+03 0.  0.
         25    2    3    3    0    0  0.53766561735E+02  0.16959577717E+02  0.12513548617E+02  0.12014926058E+03  0.10536026519E+03 0.  0.
         25    2    3    3    0    0 -0.53766561735E+02 -0.16959577717E+02  0.13565873207E+03  0.19236435444E+03  0.12418648411E+03 0.  0.
          5    1    4    4  502    0 -0.16984712207E+02 -0.12820512779E+02 -0.26174586797E+02  0.34059433211E+02  0.47000000000E+01 0. -1.
         -5    1    4    4    0  502  0.70751273942E+02  0.29780090496E+02  0.38688135413E+02  0.86089827367E+02  0.47000000000E+01 0. -1.
          5    1    5    5  503    0 -0.39763403407E+02  0.35905163847E+02  0.92739600377E+01  0.54574768677E+02  0.47000000000E+01 0. -1.
         -5    1    5    5    0  503 -0.14003158329E+02 -0.52864741565E+02  0.12638477203E+03  0.13778958576E+03  0.47000000000E+01 0. -1.
<mgrwt>
<rscale>  0 0.27515402E+03</rscale>
<asrwt>0</asrwt>
<pdfrwt beam="1">  1        2 0.35437376E-01 0.27515402E+03</pdfrwt>
<pdfrwt beam="2">  1       -2 0.12641641E-01 0.27515402E+03</pdfrwt>
<totfact> 0.65749492E+03</totfact>
</mgrwt>
</event>
<event>
 9    1  0.2098759E-002  0.2751595E+03  0.7818608E-02  0.1098362E+00
          1   -1    0    0  501    0  0.00000000000E+00  0.00000000000E+00  0.25674928420E+04  0.25674928420E+04  0.00000000000E+00 0.  1.
         -1   -1    0    0    0  501 -0.00000000000E+00 -0.00000000000E+00 -0.73722464549E+01  0.73722464549E+01  0.00000000000E+00 0.  1.
         36    2    1    2    0    0 -0.71054273576E-14 -0.35527136788E-14  0.25601205956E+04  0.25748650885E+04  0.27515951739E+03 0.  0.
         25    2    3    3    0    0 -0.56866466910E+02 -0.14850087664E+02  0.10117877804E+04  0.10209872014E+04  0.12347482637E+03 0.  0.
         25    2    3    3    0    0  0.56866466910E+02  0.14850087664E+02  0.15483328152E+04  0.15538778871E+04  0.11725042081E+03 0.  0.
          5    1    4    4  502    0 -0.94707290462E+02 -0.14298998634E+02  0.62353435600E+03  0.63086537022E+03  0.47000000000E+01 0. -1.
         -5    1    4    4    0  502  0.37840823552E+02 -0.55108902989E+00  0.38825342441E+03  0.39012183122E+03  0.47000000000E+01 0. -1.
          5    1    5    5  503    0 -0.28195811044E+02 -0.39139605755E+00  0.80769810831E+03  0.80820386111E+03  0.47000000000E+01 0. -1.
         -5    1    5    5    0  503  0.85062277954E+02  0.15241483721E+02  0.74063470686E+03  0.74567402594E+03  0.47000000000E+01 0. -1.
<mgrwt>
<rscale>  0 0.27515952E+03</rscale>
<asrwt>0</asrwt>
<pdfrwt beam="1">  1        1 0.39499818E+00 0.27515952E+03</pdfrwt>
<pdfrwt beam="2">  1       -1 0.11341938E-02 0.27515952E+03</pdfrwt>
<totfact> 0.22403559E+03</totfact>
</mgrwt>
</event>
<event>
 9    1  0.2098759E-002  0.2755922E+03  0.7818608E-02  0.1098121E+00
         -2   -1    0    0    0  501 -0.00000000000E+00  0.00000000000E+00  0.24113394147E+02  0.24113394147E+02  0.00000000000E+00 0.  1.
          2   -1    0    0  501    0  0.00000000000E+00 -0.00000000000E+00 -0.78743663065E+03  0.78743663065E+03  0.00000000000E+00 0.  1.
         36    2    1    2    0    0  0.00000000000E+00  0.00000000000E+00 -0.76332323651E+03  0.81155002480E+03  0.27559223386E+03 0.  0.
         25    2    3    3    0    0  0.38860050854E+02  0.37392928423E+02 -0.29738098464E+03  0.32632386935E+03  0.12305886002E+03 0.  0.
         25    2    3    3    0    0 -0.38860050854E+02 -0.37392928423E+02 -0.46594225186E+03  0.48522615546E+03  0.12423326937E+03 0.  0.
          5    1    4    4  502    0  0.67330528961E+01 -0.29433933037E+02 -0.20737448605E+03  0.20961383036E+03  0.47000000000E+01 0. -1.
         -5    1    4    4    0  502  0.32126997958E+02  0.66826861460E+02 -0.90006498597E+02  0.11671003899E+03  0.47000000000E+01 0. -1.
          5    1    5    5  503    0 -0.39941288920E+02 -0.21441049808E+02 -0.45316910307E+02  0.64270814039E+02  0.47000000000E+01 0.  1.
         -5    1    5    5    0  503  0.10812380664E+01 -0.15951878615E+02 -0.42062534156E+03  0.42095534142E+03  0.47000000000E+01 0.  1.
<mgrwt>
<rscale>  0 0.27559223E+03</rscale>
<asrwt>0</asrwt>
<pdfrwt beam="1">  1        2 0.12114412E+00 0.27559223E+03</pdfrwt>
<pdfrwt beam="2">  1       -2 0.37097523E-02 0.27559223E+03</pdfrwt>
<totfact> 0.11110339E+04</totfact>
</mgrwt>
</event>
<event>
 9    1  0.2098759E-002  0.2753974E+03  0.7818608E-02  0.1098230E+00
          2   -1    0    0  501    0  0.00000000000E+00  0.00000000000E+00  0.24732976331E+03  0.24732976331E+03  0.00000000000E+00 0.  1.
         -2   -1    0    0    0  501 -0.00000000000E+00 -0.00000000000E+00 -0.76662530305E+02  0.76662530305E+02  0.00000000000E+00 0.  1.
         36    2    1    2    0    0  0.35527136788E-14  0.00000000000E+00  0.17066723301E+03  0.32399229362E+03  0.27539735275E+03 0.  0.
         25    2    3    3    0    0  0.30872707621E+02 -0.45090353132E+02  0.49957165872E+02  0.14122871930E+03  0.12026457796E+03 0.  0.
         25    2    3    3    0    0 -0.30872707621E+02  0.45090353132E+02  0.12071006714E+03  0.18276357432E+03  0.12587827362E+03 0.  0.
          5    1    4    4  502    0 -0.30974327921E+01 -0.79332310730E+02  0.13696210127E+02  0.80702452178E+02  0.47000000000E+01 0.  1.
         -5    1    4    4    0  502  0.33970140413E+02  0.34241957598E+02  0.36260955745E+02  0.60526267119E+02  0.47000000000E+01 0.  1.
          5    1    5    5  503    0  0.40315494108E+02  0.76953660482E+01  0.47662134613E+01  0.41585628702E+02  0.47000000000E+01 0.  1.
         -5    1    5    5    0  503 -0.71188201729E+02  0.37394987084E+02  0.11594385367E+03  0.14117794562E+03  0.47000000000E+01 0.  1.
<mgrwt>
<rscale>  0 0.27539735E+03</rscale>
<asrwt>0</asrwt>
<pdfrwt beam="1">  1        2 0.38050732E-01 0.27539735E+03</pdfrwt>
<pdfrwt beam="2">  1       -2 0.11794236E-01 0.27539735E+03</pdfrwt>
<totfact> 0.68104107E+03</totfact>
</mgrwt>
</event>
<event>
 9    1  0.2098759E-002  0.2745506E+03  0.7818608E-02  0.1098703E+00
         -2   -1    0    0    0  501 -0.00000000000E+00  0.00000000000E+00  0.63197554379E+02  0.63197554379E+02  0.00000000000E+00 0.  1.
          2   -1    0    0  501    0  0.00000000000E+00 -0.00000000000E+00 -0.29818422197E+03  0.29818422197E+03  0.00000000000E+00 0.  1.
         36    2    1    2    0    0  0.00000000000E+00  0.00000000000E+00 -0.23498666759E+03  0.36138177635E+03  0.27455064074E+03 0.  0.
         25    2    3    3    0    0 -0.40560518836E+02  0.39220681456E+02 -0.10827796088E+03  0.17446942938E+03  0.12462763511E+03 0.  0.
         25    2    3    3    0    0  0.40560518836E+02 -0.39220681456E+02 -0.12670870671E+03  0.18691234697E+03  0.12529050862E+03 0.  0.
          5    1    4    4  502    0 -0.72226936432E+02  0.63715649490E+02 -0.73861633354E+02  0.12146623077E+03  0.47000000000E+01 0.  1.
         -5    1    4    4    0  502  0.31666417596E+02 -0.24494968034E+02 -0.34416327526E+02  0.53003198608E+02  0.47000000000E+01 0.  1.
          5    1    5    5  503    0  0.74763619174E+01  0.75535673589E+01  0.23425382263E+02  0.26149395816E+02  0.47000000000E+01 0. -1.
         -5    1    5    5    0  503  0.33084156919E+02 -0.46774248815E+02 -0.15013408897E+03  0.16076295115E+03  0.47000000000E+01 0. -1.
<mgrwt>
<rscale>  0 0.27455064E+03</rscale>
<asrwt>0</asrwt>
<pdfrwt beam="1">  1        2 0.45874496E-01 0.27455064E+03</pdfrwt>
<pdfrwt beam="2">  1       -2 0.97227006E-02 0.27455064E+03</pdfrwt>
<totfact> 0.75815283E+03</totfact>
</mgrwt>
</event>
<event>
 9    1  0.2098759E-002  0.2765737E+03  0.7818608E-02  0.1097575E+00
         -2   -1    0    0    0  501 -0.00000000000E+00  0.00000000000E+00  0.26669835541E+02  0.26669835541E+02  0.00000000000E+00 0. -1.
          2   -1    0    0  501    0  0.00000000000E+00 -0.00000000000E+00 -0.71703673126E+03  0.71703673126E+03  0.00000000000E+00 0. -1.
         36    2    1    2    0    0 -0.14210854715E-13  0.00000000000E+00 -0.69036689571E+03  0.74370656680E+03  0.27657369144E+03 0.  0.
         25    2    3    3    0    0  0.53740851856E+02 -0.11983406380E+02 -0.32435900905E+03  0.35221154513E+03  0.12574786115E+03 0.  0.
         25    2    3    3    0    0 -0.53740851856E+02  0.11983406380E+02 -0.36600788666E+03  0.39149502167E+03  0.12757310728E+03 0.  0.
          5    1    4    4  502    0  0.89459438096E+02  0.13335135704E+02 -0.24861259694E+03  0.26459616450E+03  0.47000000000E+01 0. -1.
         -5    1    4    4    0  502 -0.35718586240E+02 -0.25318542084E+02 -0.75746412109E+02  0.87615380634E+02  0.47000000000E+01 0. -1.
          5    1    5    5  503    0  0.33063609590E+02  0.12925025469E+02 -0.38222163446E+02  0.52376352880E+02  0.47000000000E+01 0. -1.
         -5    1    5    5    0  503 -0.86804461446E+02 -0.94161908868E+00 -0.32778572322E+03  0.33911866879E+03  0.47000000000E+01 0. -1.
<mgrwt>
<rscale>  0 0.27657369E+03</rscale>
<asrwt>0</asrwt>
<pdfrwt beam="1">  1        2 0.11031332E+00 0.27657369E+03</pdfrwt>
<pdfrwt beam="2">  1       -2 0.41030524E-02 0.27657369E+03</pdfrwt>
<totfact> 0.10729966E+04</totfact>
</mgrwt>
</event>
<event>
 9    1  0.2098759E-002  0.2756839E+03  0.7818608E-02  0.1098070E+00
          2   -1    0    0  501    0  0.00000000000E+00  0.00000000000E+00  0.73046969325E+02  0.73046969325E+02  0.00000000000E+00 0.  1.
         -2   -1    0    0    0  501 -0.00000000000E+00 -0.00000000000E+00 -0.26011204182E+03  0.26011204182E+03  0.00000000000E+00 0.  1.
         36    2    1    2    0    0  0.17763568394E-14  0.35527136788E-14 -0.18706507250E+03  0.33315901115E+03  0.27568385038E+03 0.  0.
         25    2    3    3    0    0  0.14931025970E+02 -0.22494062651E+01 -0.30154659520E+02  0.13004527679E+03  0.12559647749E+03 0.  0.
         25    2    3    3    0    0 -0.14931025970E+02  0.22494062651E+01 -0.15691041298E+03  0.20311373436E+03  0.12808714229E+03 0.  0.
          5    1    4    4  502    0  0.44500124219E+02 -0.27662994966E+02  0.28213109371E+02  0.59695660533E+02  0.47000000000E+01 0.  1.
         -5    1    4    4    0  502 -0.29569098250E+02  0.25413588701E+02 -0.58367768891E+02  0.70349616255E+02  0.47000000000E+01 0.  1.
          5    1    5    5  503    0 -0.17043639321E+02  0.59948579960E+02 -0.44726504161E+02  0.76856151705E+02  0.47000000000E+01 0.  1.
         -5    1    5    5    0  503  0.21126133515E+01 -0.57699173695E+02 -0.11218390882E+03  0.12625758266E+03  0.47000000000E+01 0.  1.
<mgrwt>
<rscale>  0 0.27568385E+03</rscale>
<asrwt>0</asrwt>
<pdfrwt beam="1">  1        2 0.11237995E-01 0.27568385E+03</pdfrwt>
<pdfrwt beam="2">  1       -2 0.40017237E-01 0.27568385E+03</pdfrwt>
<totfact> 0.32839974E+03</totfact>
</mgrwt>
</event>
<event>
 9    1  0.2098759E-002  0.2750010E+03  0.7818608E-02  0.1098451E+00
         -2   -1    0    0    0  501 -0.00000000000E+00  0.00000000000E+00  0.12082819073E+03  0.12082819073E+03  0.00000000000E+00 0. -1.
          2   -1    0    0  501    0  0.00000000000E+00 -0.00000000000E+00 -0.15647329199E+03  0.15647329199E+03  0.00000000000E+00 0. -1.
         36    2    1    2    0    0  0.11102230246E-14  0.00000000000E+00 -0.35645101262E+02  0.27730148272E+03  0.27500098014E+03 0.  0.
         25    2    3    3    0    0  0.10079129411E+01  0.50521143077E+02  0.50256898538E+01  0.13684818468E+03  0.12707779627E+03 0.  0.
         25    2    3    3    0    0 -0.10079129411E+01 -0.50521143077E+02 -0.40670791116E+02  0.14045329804E+03  0.12457774237E+03 0.  0.
          5    1    4    4  502    0 -0.63741340665E+00 -0.25182823231E+02 -0.40825505226E+02  0.48201584608E+02  0.47000000000E+01 0.  1.
         -5    1    4    4    0  502  0.16453263477E+01  0.75703966309E+02  0.45851195080E+02  0.88646600070E+02  0.47000000000E+01 0.  1.
          5    1    5    5  503    0  0.15762716960E+02  0.17585664380E+01  0.39698537541E+02  0.43007205034E+02  0.47000000000E+01 0.  1.
         -5    1    5    5    0  503 -0.16770629901E+02 -0.52279709515E+02 -0.80369328657E+02  0.97446093011E+02  0.47000000000E+01 0.  1.
<mgrwt>
<rscale>  0 0.27500098E+03</rscale>
<asrwt>0</asrwt>
<pdfrwt beam="1">  1        2 0.24072814E-01 0.27500098E+03</pdfrwt>
<pdfrwt beam="2">  1       -2 0.18588952E-01 0.27500098E+03</pdfrwt>
<totfact> 0.53137114E+03</totfact>
</mgrwt>
</event>
<event>
 9    1  0.2098759E-002  0.2747169E+03  0.7818608E-02  0.1098610E+00
         -1   -1    0    0    0  501 -0.00000000000E+00  0.00000000000E+00  0.55499291947E+02  0.55499291947E+02  0.00000000000E+00 0.  1.
          1   -1    0    0  501    0  0.00000000000E+00 -0.00000000000E+00 -0.33995641563E+03  0.33995641563E+03  0.00000000000E+00 0.  1.
         36    2    1    2    0    0  0.00000000000E+00  0.00000000000E+00 -0.28445712369E+03  0.39545570758E+03  0.27471687506E+03 0.  0.
         25    2    3    3    0    0  0.15130834547E+02 -0.52083152042E+02 -0.16945372223E+03  0.21701097280E+03  0.12424814469E+03 0.  0.
         25    2    3    3    0    0 -0.15130834547E+02  0.52083152042E+02 -0.11500340145E+03  0.17844473477E+03  0.12520041590E+03 0.  0.
          5    1    4    4  502    0  0.62728609932E+02 -0.33035345606E+02 -0.49841494068E+02  0.86789844419E+02  0.47000000000E+01 0.  1.
         -5    1    4    4    0  502 -0.47597775385E+02 -0.19047806436E+02 -0.11961222816E+03  0.13022112839E+03  0.47000000000E+01 0.  1.
          5    1    5    5  503    0 -0.48768284269E+02  0.15997268600E+00 -0.14142497686E+01  0.49014908387E+02  0.47000000000E+01 0. -1.
         -5    1    5    5    0  503  0.33637449722E+02  0.51923179356E+02 -0.11358915168E+03  0.12942982639E+03  0.47000000000E+01 0. -1.
<mgrwt>
<rscale>  0 0.27471688E+03</rscale>
<asrwt>0</asrwt>
<pdfrwt beam="1">  1        1 0.52300987E-01 0.27471688E+03</pdfrwt>
<pdfrwt beam="2">  1       -1 0.85383526E-02 0.27471688E+03</pdfrwt>
<totfact> 0.57808112E+03</totfact>
</mgrwt>
</event>
<event>
 9    1  0.2098759E-002  0.2751112E+03  0.7818608E-02  0.1098389E+00
         -3   -1    0    0    0  501 -0.00000000000E+00  0.00000000000E+00  0.14374917022E+02  0.14374917022E+02  0.00000000000E+00 0. -1.
          3   -1    0    0  501    0  0.00000000000E+00 -0.00000000000E+00 -0.13162893248E+04  0.13162893248E+04  0.00000000000E+00 0. -1.
         36    2    1    2    0    0  0.00000000000E+00  0.00000000000E+00 -0.13019144077E+04  0.13306642418E+04  0.27511124892E+03 0.  0.
         25    2    3    3    0    0  0.54212757390E+02  0.21051829571E+02 -0.73091331511E+03  0.74344651931E+03  0.12286679888E+03 0.  0.
         25    2    3    3    0    0 -0.54212757390E+02 -0.21051829571E+02 -0.57100109263E+03  0.58721772248E+03  0.12409755525E+03 0.  0.
          5    1    4    4  502    0 -0.39860730651E+01  0.55495435000E+00  0.30365566780E+01  0.68925633309E+01  0.47000000000E+01 0. -1.
         -5    1    4    4    0  502  0.58198830455E+02  0.20496875221E+02 -0.73394987179E+03  0.73655395598E+03  0.47000000000E+01 0. -1.
          5    1    5    5  503    0 -0.82393900501E+01  0.64936642776E+01 -0.48905067348E+03  0.48918575864E+03  0.47000000000E+01 0.  1.
         -5    1    5    5    0  503 -0.45973367340E+02 -0.27545493848E+02 -0.81950419148E+02  0.98031963840E+02  0.47000000000E+01 0.  1.
<mgrwt>
<rscale>  0 0.27511125E+03</rscale>
<asrwt>0</asrwt>
<pdfrwt beam="1">  1        3 0.20250601E+00 0.27511125E+03</pdfrwt>
<pdfrwt beam="2">  1       -3 0.22115262E-02 0.27511125E+03</pdfrwt>
<totfact> 0.32041178E+02</totfact>
</mgrwt>
</event>
<event>
 9    1  0.2098759E-002  0.2746063E+03  0.7818608E-02  0.1098672E+00
          2   -1    0    0  501    0  0.00000000000E+00  0.00000000000E+00  0.11793897947E+03  0.11793897947E+03  0.00000000000E+00 0. -1.
         -2   -1    0    0    0  501 -0.00000000000E+00 -0.00000000000E+00 -0.15984670249E+03  0.15984670249E+03  0.00000000000E+00 0. -1.
         36    2    1    2    0    0 -0.71054273576E-14 -0.71054273576E-14 -0.41907723018E+02  0.27778568197E+03  0.27460631431E+03 0.  0.
         25    2    3    3    0    0  0.46768567453E+02  0.13912636385E+02  0.11564270907E+02  0.13118510785E+03  0.12122268685E+03 0.  0.
         25    2    3    3    0    0 -0.46768567453E+02 -0.13912636385E+02 -0.53471993924E+02  0.14660057412E+03  0.12748181770E+03 0.  0.
          5    1    4    4  502    0 -0.38551345045E+02  0.14488295369E+02  0.18623664537E+02  0.45442796880E+02  0.47000000000E+01 0. -1.
         -5    1    4    4    0  502  0.85319912498E+02 -0.57565898350E+00 -0.70593936299E+01  0.85742310969E+02  0.47000000000E+01 0. -1.
          5    1    5    5  503    0 -0.30932845963E+02 -0.67853165100E+02 -0.10009951763E+02  0.75386882863E+02  0.47000000000E+01 0.  1.
         -5    1    5    5    0  503 -0.15835721490E+02  0.53940528715E+02 -0.43462042162E+02  0.71213691254E+02  0.47000000000E+01 0.  1.
<mgrwt>
<rscale>  0 0.27460631E+03</rscale>
<asrwt>0</asrwt>
<pdfrwt beam="1">  1        2 0.18144458E-01 0.27460631E+03</pdfrwt>
<pdfrwt beam="2">  1       -2 0.24591800E-01 0.27460631E+03</pdfrwt>
<totfact> 0.45236714E+03</totfact>
</mgrwt>
</event>
<event>
 9    1  0.2098759E-002  0.2745975E+03  0.7818608E-02  0.1098677E+00
          2   -1    0    0  501    0  0.00000000000E+00  0.00000000000E+00  0.36369012865E+03  0.36369012865E+03  0.00000000000E+00 0.  1.
         -2   -1    0    0    0  501 -0.00000000000E+00 -0.00000000000E+00 -0.51832439617E+02  0.51832439617E+02  0.00000000000E+00 0.  1.
         36    2    1    2    0    0  0.00000000000E+00  0.35527136788E-14  0.31185768903E+03  0.41552256826E+03  0.27459749913E+03 0.  0.
         25    2    3    3    0    0 -0.96594292965E+01 -0.29352339670E+02  0.16155776173E+03  0.21816218899E+03  0.14331422089E+03 0.  0.
         25    2    3    3    0    0  0.96594292965E+01  0.29352339670E+02  0.15029992730E+03  0.19736037927E+03  0.12412166106E+03 0.  0.
          5    1    4    4  502    0  0.41589589677E+02 -0.59899793668E+02  0.41552841609E+02  0.84061928938E+02  0.47000000000E+01 0. -1.
         -5    1    4    4    0  502 -0.51249018974E+02  0.30547453998E+02  0.12000492013E+03  0.13410026005E+03  0.47000000000E+01 0. -1.
          5    1    5    5  503    0 -0.47712984462E+02 -0.17675063216E+02  0.42748236559E+02  0.66621606667E+02  0.47000000000E+01 0. -1.
         -5    1    5    5    0  503  0.57372413759E+02  0.47027402886E+02  0.10755169074E+03  0.13073877261E+03  0.47000000000E+01 0. -1.
<mgrwt>
<rscale>  0 0.27459750E+03</rscale>
<asrwt>0</asrwt>
<pdfrwt beam="1">  1        2 0.55952326E-01 0.27459750E+03</pdfrwt>
<pdfrwt beam="2">  1       -2 0.79742217E-02 0.27459750E+03</pdfrwt>
<totfact> 0.83619647E+03</totfact>
</mgrwt>
</event>
<event>
 9    1  0.2098759E-002  0.2747910E+03  0.7818608E-02  0.1098569E+00
         -2   -1    0    0    0  501 -0.00000000000E+00  0.00000000000E+00  0.31141020102E+02  0.31141020102E+02  0.00000000000E+00 0. -1.
          2   -1    0    0  501    0  0.00000000000E+00 -0.00000000000E+00 -0.60619459265E+03  0.60619459265E+03  0.00000000000E+00 0. -1.
         36    2    1    2    0    0  0.00000000000E+00  0.00000000000E+00 -0.57505357254E+03  0.63733561275E+03  0.27479096052E+03 0.  0.
         25    2    3    3    0    0 -0.16166797911E+02 -0.57905307386E+02 -0.19694510270E+03  0.23616339476E+03  0.11563470747E+03 0.  0.
         25    2    3    3    0    0  0.16166797911E+02  0.57905307386E+02 -0.37810846985E+03  0.40117221799E+03  0.11982797477E+03 0.  0.
          5    1    4    4  502    0  0.33251708410E+02 -0.36597269078E+02 -0.16735181534E+03  0.17456734034E+03  0.47000000000E+01 0.  1.
         -5    1    4    4    0  502 -0.49418506321E+02 -0.21308038307E+02 -0.29593287357E+02  0.61596054420E+02  0.47000000000E+01 0.  1.
          5    1    5    5  503    0 -0.74740045504E+01 -0.15048549695E+02 -0.25801377580E+03  0.25860301253E+03  0.47000000000E+01 0.  1.
         -5    1    5    5    0  503  0.23640802462E+02  0.72953857080E+02 -0.12009469405E+03  0.14256920545E+03  0.47000000000E+01 0.  1.
<mgrwt>
<rscale>  0 0.27479096E+03</rscale>
<asrwt>0</asrwt>
<pdfrwt beam="1">  1        2 0.93260705E-01 0.27479096E+03</pdfrwt>
<pdfrwt beam="2">  1       -2 0.47909263E-02 0.27479096E+03</pdfrwt>
<totfact> 0.10368836E+04</totfact>
</mgrwt>
</event>
<event>
 9    1  0.2098759E-002  0.2743949E+03  0.7818608E-02  0.1098790E+00
         -2   -1    0    0    0  501 -0.00000000000E+00  0.00000000000E+00  0.11053866418E+02  0.11053866418E+02  0.00000000000E+00 0.  1.
          2   -1    0    0  501    0  0.00000000000E+00 -0.00000000000E+00 -0.17028553867E+04  0.17028553867E+04  0.00000000000E+00 0.  1.
         36    2    1    2    0    0 -0.71054273576E-14  0.00000000000E+00 -0.16918015202E+04  0.17139092531E+04  0.27439486856E+03 0.  0.
         25    2    3    3    0    0  0.47622393999E+02  0.32378470586E+02 -0.73447804374E+03  0.74728644751E+03  0.12515102926E+03 0.  0.
         25    2    3    3    0    0 -0.47622393999E+02 -0.32378470586E+02 -0.95732347650E+03  0.96662280557E+03  0.12072759344E+03 0.  0.
          5    1    4    4  502    0 -0.11627064177E+02 -0.61937002383E+01 -0.57517183472E+01  0.15123584495E+02  0.47000000000E+01 0. -1.
         -5    1    4    4    0  502  0.59249458176E+02  0.38572170825E+02 -0.72872632539E+03  0.73216286301E+03  0.47000000000E+01 0. -1.
          5    1    5    5  503    0 -0.64354462252E+02 -0.11587861830E+02 -0.24014848692E+03  0.24893605831E+03  0.47000000000E+01 0. -1.
         -5    1    5    5    0  503  0.16732068253E+02 -0.20790608757E+02 -0.71717498958E+03  0.71768674726E+03  0.47000000000E+01 0. -1.
<mgrwt>
<rscale>  0 0.27439487E+03</rscale>
<asrwt>0</asrwt>
<pdfrwt beam="1">  1        2 0.26197786E+00 0.27439487E+03</pdfrwt>
<pdfrwt beam="2">  1       -2 0.17005941E-02 0.27439487E+03</pdfrwt>
<totfact> 0.10448161E+04</totfact>
</mgrwt>
</event>
<event>
 9    1  0.2098759E-002  0.2750224E+03  0.7818608E-02  0.1098439E+00
         -4   -1    0    0    0  501 -0.00000000000E+00  0.00000000000E+00  0.97843121056E+02  0.97843121056E+02  0.00000000000E+00 0.  1.
          4   -1    0    0  501    0  0.00000000000E+00 -0.00000000000E+00 -0.19326177884E+03  0.19326177884E+03  0.00000000000E+00 0.  1.
         36    2    1    2    0    0  0.00000000000E+00  0.35527136788E-14 -0.95418657782E+02  0.29110489989E+03  0.27502243997E+03 0.  0.
         25    2    3    3    0    0 -0.49184047641E+02  0.27157513400E+02 -0.49077076332E+02  0.14457931158E+03  0.12384674739E+03 0.  0.
         25    2    3    3    0    0  0.49184047641E+02 -0.27157513400E+02 -0.46341581450E+02  0.14652558831E+03  0.12714403164E+03 0.  0.
          5    1    4    4  502    0 -0.87312897113E+02  0.20015101105E+01 -0.45315987037E+02  0.98504704081E+02  0.47000000000E+01 0.  1.
         -5    1    4    4    0  502  0.38128849472E+02  0.25156003289E+02 -0.37610892951E+01  0.46074607499E+02  0.47000000000E+01 0.  1.
          5    1    5    5  503    0  0.64028176376E+01  0.26976817498E+02  0.31615966726E+02  0.42313167076E+02  0.47000000000E+01 0. -1.
         -5    1    5    5    0  503  0.42781230004E+02 -0.54134330898E+02 -0.77957548176E+02  0.10421242124E+03  0.47000000000E+01 0. -1.
<mgrwt>
<rscale>  0 0.27502244E+03</rscale>
<asrwt>0</asrwt>
<pdfrwt beam="1">  1        4 0.29732581E-01 0.27502244E+03</pdfrwt>
<pdfrwt beam="2">  1       -4 0.15052788E-01 0.27502244E+03</pdfrwt>
<totfact> 0.75976921E+02</totfact>
</mgrwt>
</event>
<event>
 9    1  0.2098759E-002  0.2738448E+03  0.7818608E-02  0.1099099E+00
          2   -1    0    0  501    0  0.00000000000E+00  0.00000000000E+00  0.23441064158E+03  0.23441064158E+03  0.00000000000E+00 0.  1.
         -2   -1    0    0    0  501 -0.00000000000E+00 -0.00000000000E+00 -0.79978222882E+02  0.79978222882E+02  0.00000000000E+00 0.  1.
         36    2    1    2    0    0 -0.35527136788E-14 -0.35527136788E-14  0.15443241869E+03  0.31438886446E+03  0.27384482130E+03 0.  0.
         25    2    3    3    0    0 -0.89040918512E+01 -0.31870059808E+02  0.12966756859E+03  0.18186342517E+03  0.12314886726E+03 0.  0.
         25    2    3    3    0    0  0.89040918512E+01  0.31870059808E+02  0.24764850106E+02  0.13252543929E+03  0.12591549029E+03 0.  0.
          5    1    4    4  502    0  0.20187812828E+02 -0.50998374171E+02  0.84961565177E+01  0.55701495765E+02  0.47000000000E+01 0.  1.
         -5    1    4    4    0  502 -0.29091904679E+02  0.19128314363E+02  0.12117141207E+03  0.12616192941E+03  0.47000000000E+01 0.  1.
          5    1    5    5  503    0 -0.25302292699E+02 -0.25910402074E+02 -0.28794804948E+02  0.46505760326E+02  0.47000000000E+01 0.  1.
         -5    1    5    5    0  503  0.34206384550E+02  0.57780461882E+02  0.53559655054E+02  0.86019678963E+02  0.47000000000E+01 0.  1.
<mgrwt>
<rscale>  0 0.27384482E+03</rscale>
<asrwt>0</asrwt>
<pdfrwt beam="1">  1        2 0.36063175E-01 0.27384482E+03</pdfrwt>
<pdfrwt beam="2">  1       -2 0.12304342E-01 0.27384482E+03</pdfrwt>
<totfact> 0.67391217E+03</totfact>
</mgrwt>
</event>
<event>
 9    1  0.2098759E-002  0.2750244E+03  0.7818608E-02  0.1098438E+00
         -1   -1    0    0    0  501 -0.00000000000E+00  0.00000000000E+00  0.57898083400E+02  0.57898083400E+02  0.00000000000E+00 0. -1.
          1   -1    0    0  501    0  0.00000000000E+00 -0.00000000000E+00 -0.32660157516E+03  0.32660157516E+03  0.00000000000E+00 0. -1.
         36    2    1    2    0    0  0.00000000000E+00  0.00000000000E+00 -0.26870349176E+03  0.38449965856E+03  0.27502440064E+03 0.  0.
         25    2    3    3    0    0  0.45259962248E+02  0.37004890442E+02 -0.16472282691E+03  0.21570641905E+03  0.12640341536E+03 0.  0.
         25    2    3    3    0    0 -0.45259962248E+02 -0.37004890442E+02 -0.10398066485E+03  0.16879323950E+03  0.11942090663E+03 0.  0.
          5    1    4    4  502    0  0.16066930939E+02  0.67557459941E+02 -0.32498272893E+02  0.76813959698E+02  0.47000000000E+01 0. -1.
         -5    1    4    4    0  502  0.29193031309E+02 -0.30552569499E+02 -0.13222455402E+03  0.13889245936E+03  0.47000000000E+01 0. -1.
          5    1    5    5  503    0 -0.44714841070E+01 -0.48116183581E+02 -0.11502122953E+03  0.12484844626E+03  0.47000000000E+01 0.  1.
         -5    1    5    5    0  503 -0.40788478141E+02  0.11111293139E+02  0.11040564683E+02  0.43944793239E+02  0.47000000000E+01 0.  1.
<mgrwt>
<rscale>  0 0.27502440E+03</rscale>
<asrwt>0</asrwt>
<pdfrwt beam="1">  1        1 0.50246397E-01 0.27502440E+03</pdfrwt>
<pdfrwt beam="2">  1       -1 0.89073973E-02 0.27502440E+03</pdfrwt>
<totfact> 0.56992213E+03</totfact>
</mgrwt>
</event>
<event>
 9    1  0.2098759E-002  0.2745930E+03  0.7818608E-02  0.1098679E+00
         -2   -1    0    0    0  501 -0.00000000000E+00  0.00000000000E+00  0.65201291766E+02  0.65201291766E+02  0.00000000000E+00 0.  1.
          2   -1    0    0  501    0  0.00000000000E+00 -0.00000000000E+00 -0.28910979103E+03  0.28910979103E+03  0.00000000000E+00 0.  1.
         36    2    1    2    0    0  0.00000000000E+00  0.00000000000E+00 -0.22390849926E+03  0.35431108279E+03  0.27459302130E+03 0.  0.
         25    2    3    3    0    0  0.38881263326E+02  0.72350951094E+01 -0.82268244900E+02  0.15258289459E+03  0.12226764234E+03 0.  0.
         25    2    3    3    0    0 -0.38881263326E+02 -0.72350951094E+01 -0.14164025436E+03  0.20172818821E+03  0.13808765702E+03 0.  0.
          5    1    4    4  502    0  0.16239325260E+01  0.60654562319E+02 -0.54249499031E+02  0.81527364928E+02  0.47000000000E+01 0. -1.
         -5    1    4    4    0  502  0.37257330800E+02 -0.53419467209E+02 -0.28018745869E+02  0.71055529660E+02  0.47000000000E+01 0. -1.
          5    1    5    5  503    0 -0.63787964339E+02  0.44163867744E+02 -0.11431944028E+03  0.13824028369E+03  0.47000000000E+01 0.  1.
         -5    1    5    5    0  503  0.24906701014E+02 -0.51398962854E+02 -0.27320814086E+02  0.63487904519E+02  0.47000000000E+01 0.  1.
<mgrwt>
<rscale>  0 0.27459302E+03</rscale>
<asrwt>0</asrwt>
<pdfrwt beam="1">  1        2 0.44478430E-01 0.27459302E+03</pdfrwt>
<pdfrwt beam="2">  1       -2 0.10030968E-01 0.27459302E+03</pdfrwt>
<totfact> 0.74587950E+03</totfact>
</mgrwt>
</event>
<event>
 9    1  0.2098759E-002  0.2746490E+03  0.7818608E-02  0.1098648E+00
         -2   -1    0    0    0  501 -0.00000000000E+00  0.00000000000E+00  0.12074091090E+02  0.12074091090E+02  0.00000000000E+00 0. -1.
          2   -1    0    0  501    0  0.00000000000E+00 -0.00000000000E+00 -0.15618579245E+04  0.15618579245E+04  0.00000000000E+00 0. -1.
         36    2    1    2    0    0 -0.17763568394E-14  0.00000000000E+00 -0.15497838334E+04  0.15739320156E+04  0.27464897488E+03 0.  0.
         25    2    3    3    0    0  0.11861934422E+02  0.59542706268E+01 -0.41492696545E+03  0.43352495915E+03  0.12491334886E+03 0.  0.
         25    2    3    3    0    0 -0.11861934422E+02 -0.59542706268E+01 -0.11348568680E+04  0.11404070564E+04  0.11158846173E+03 0.  0.
          5    1    4    4  502    0  0.63105583130E+02 -0.11200036217E+01 -0.13871405588E+03  0.15247048347E+03  0.47000000000E+01 0. -1.
         -5    1    4    4    0  502 -0.51243648708E+02  0.70742742485E+01 -0.27621290957E+03  0.28105447568E+03  0.47000000000E+01 0. -1.
          5    1    5    5  503    0  0.77375234404E+01  0.18691806104E+02 -0.10426765369E+04  0.10428833604E+04  0.47000000000E+01 0.  1.
         -5    1    5    5    0  503 -0.19599457862E+02 -0.24646076731E+02 -0.92180331080E+02  0.97523696017E+02  0.47000000000E+01 0.  1.
<mgrwt>
<rscale>  0 0.27464897E+03</rscale>
<asrwt>0</asrwt>
<pdfrwt beam="1">  1        2 0.24028592E+00 0.27464897E+03</pdfrwt>
<pdfrwt beam="2">  1       -2 0.18575518E-02 0.27464897E+03</pdfrwt>
<totfact> 0.10898004E+04</totfact>
</mgrwt>
</event>
<event>
 9    1  0.2098759E-002  0.2797501E+03  0.7818608E-02  0.1095826E+00
         -1   -1    0    0    0  501 -0.00000000000E+00  0.00000000000E+00  0.68915034445E+01  0.68915034445E+01  0.00000000000E+00 0. -1.
          1   -1    0    0  501    0  0.00000000000E+00 -0.00000000000E+00 -0.28390077927E+04  0.28390077927E+04  0.00000000000E+00 0. -1.
         36    2    1    2    0    0  0.14210854715E-13  0.10658141036E-13 -0.28321162893E+04  0.28458992961E+04  0.27975011694E+03 0.  0.
         25    2    3    3    0    0 -0.59015326835E+02 -0.31531193641E+02 -0.11793621764E+04  0.11876239480E+04  0.12279443643E+03 0.  0.
         25    2    3    3    0    0  0.59015326835E+02  0.31531193641E+02 -0.16527541128E+04  0.16582753482E+04  0.11749020358E+03 0.  0.
          5    1    4    4  502    0  0.27271074484E+02 -0.23506384412E+02 -0.13954666946E+03  0.14419301151E+03  0.47000000000E+01 0.  1.
         -5    1    4    4    0  502 -0.86286401319E+02 -0.80248092288E+01 -0.10398155070E+04  0.10434309365E+04  0.47000000000E+01 0.  1.
          5    1    5    5  503    0  0.43089532079E+02 -0.35804733159E+02 -0.10577424431E+04  0.10592355038E+04  0.47000000000E+01 0.  1.
         -5    1    5    5    0  503  0.15925794756E+02  0.67335926800E+02 -0.59501166975E+03  0.59903984434E+03  0.47000000000E+01 0.  1.
<mgrwt>
<rscale>  0 0.27975012E+03</rscale>
<asrwt>0</asrwt>
<pdfrwt beam="1">  1        1 0.43677041E+00 0.27975012E+03</pdfrwt>
<pdfrwt beam="2">  1       -1 0.10602313E-02 0.27975012E+03</pdfrwt>
<totfact> 0.16166981E+03</totfact>
</mgrwt>
</event>
<event>
 9    1  0.2098759E-002  0.2738423E+03  0.7818608E-02  0.1099100E+00
         -2   -1    0    0    0  501 -0.00000000000E+00  0.00000000000E+00  0.12707037800E+02  0.12707037800E+02  0.00000000000E+00 0. -1.
          2   -1    0    0  501    0  0.00000000000E+00 -0.00000000000E+00 -0.14753558843E+04  0.14753558843E+04  0.00000000000E+00 0. -1.
         36    2    1    2    0    0  0.00000000000E+00  0.35527136788E-14 -0.14626488465E+04  0.14880629221E+04  0.27384231222E+03 0.  0.
         25    2    3    3    0    0  0.58304962429E+02  0.11701674167E+02 -0.79235989434E+03  0.80344186021E+03  0.11894630199E+03 0.  0.
         25    2    3    3    0    0 -0.58304962429E+02 -0.11701674167E+02 -0.67028895219E+03  0.68462106192E+03  0.12602508153E+03 0.  0.
          5    1    4    4  502    0 -0.10200310292E+02 -0.41797371484E+02 -0.19295316784E+03  0.19774751976E+03  0.47000000000E+01 0. -1.
         -5    1    4    4    0  502  0.68505272720E+02  0.53499045650E+02 -0.59940672651E+03  0.60569434046E+03  0.47000000000E+01 0. -1.
          5    1    5    5  503    0 -0.42044052566E+02 -0.18803744128E+02 -0.69240503002E+02  0.83292379035E+02  0.47000000000E+01 0.  1.
         -5    1    5    5    0  503 -0.16260909862E+02  0.71020699615E+01 -0.60104844919E+03  0.60132868289E+03  0.47000000000E+01 0.  1.
<mgrwt>
<rscale>  0 0.27384231E+03</rscale>
<asrwt>0</asrwt>
<pdfrwt beam="1">  1        2 0.22697766E+00 0.27384231E+03</pdfrwt>
<pdfrwt beam="2">  1       -2 0.19549304E-02 0.27384231E+03</pdfrwt>
<totfact> 0.11243903E+04</totfact>
</mgrwt>
</event>
<event>
 9    1  0.2098759E-002  0.2748081E+03  0.7818608E-02  0.1098559E+00
          2   -1    0    0  501    0  0.00000000000E+00  0.00000000000E+00  0.12987467099E+04  0.12987467099E+04  0.00000000000E+00 0. -1.
         -2   -1    0    0    0  501 -0.00000000000E+00 -0.00000000000E+00 -0.14536991745E+02  0.14536991745E+02  0.00000000000E+00 0. -1.
         36    2    1    2    0    0  0.71054273576E-14  0.14210854715E-13  0.12842097182E+04  0.13132837017E+04  0.27480807995E+03 0.  0.
         25    2    3    3    0    0 -0.19075230757E+02 -0.31945534811E+02  0.73792549251E+03  0.74974349947E+03  0.12726704551E+03 0.  0.
         25    2    3    3    0    0  0.19075230757E+02  0.31945534811E+02  0.54628422567E+03  0.56354020220E+03  0.13329187020E+03 0.  0.
          5    1    4    4  502    0 -0.48017066142E+02  0.34714474003E+02  0.30538152475E+03  0.31111203610E+03  0.47000000000E+01 0.  1.
         -5    1    4    4    0  502  0.28941835385E+02 -0.66660008814E+02  0.43254396776E+03  0.43863146337E+03  0.47000000000E+01 0.  1.
          5    1    5    5  503    0 -0.54008597893E+02  0.35778324274E+02  0.26718681135E+03  0.27496890604E+03  0.47000000000E+01 0.  1.
         -5    1    5    5    0  503  0.73083828649E+02 -0.38327894629E+01  0.27909741432E+03  0.28857129616E+03  0.47000000000E+01 0.  1.
<mgrwt>
<rscale>  0 0.27480808E+03</rscale>
<asrwt>0</asrwt>
<pdfrwt beam="1">  1        2 0.19980710E+00 0.27480808E+03</pdfrwt>
<pdfrwt beam="2">  1       -2 0.22364613E-02 0.27480808E+03</pdfrwt>
<totfact> 0.11510106E+04</totfact>
</mgrwt>
</event>
<event>
 9    1  0.2098759E-002  0.2773451E+03  0.7818608E-02  0.1097148E+00
          2   -1    0    0  501    0  0.00000000000E+00  0.00000000000E+00  0.21239052959E+04  0.21239052959E+04  0.00000000000E+00 0.  1.
         -2   -1    0    0    0  501 -0.00000000000E+00 -0.00000000000E+00 -0.90541100236E+01  0.90541100236E+01  0.00000000000E+00 0.  1.
         36    2    1    2    0    0  0.00000000000E+00  0.00000000000E+00  0.21148511859E+04  0.21329594060E+04  0.27734507192E+03 0.  0.
         25    2    3    3    0    0 -0.54588861677E+02 -0.71370452705E+01  0.13324453728E+04  0.13394185246E+04  0.12490168662E+03 0.  0.
         25    2    3    3    0    0  0.54588861677E+02  0.71370452705E+01  0.78240581308E+03  0.79354088132E+03  0.12048814364E+03 0.  0.
          5    1    4    4  502    0 -0.84460123779E+02  0.26161547546E+02  0.74248160961E+03  0.74774258250E+03  0.47000000000E+01 0. -1.
         -5    1    4    4    0  502  0.29871262102E+02 -0.33298592816E+02  0.58996376323E+03  0.59167594214E+03  0.47000000000E+01 0. -1.
          5    1    5    5  503    0  0.28483773333E+02 -0.28608630127E+02  0.80057398122E+02  0.89783384070E+02  0.47000000000E+01 0.  1.
         -5    1    5    5    0  503  0.26105088344E+02  0.35745675398E+02  0.70234841496E+03  0.70375749725E+03  0.47000000000E+01 0.  1.
<mgrwt>
<rscale>  0 0.27734507E+03</rscale>
<asrwt>0</asrwt>
<pdfrwt beam="1">  1        2 0.32675427E+00 0.27734507E+03</pdfrwt>
<pdfrwt beam="2">  1       -2 0.13929417E-02 0.27734507E+03</pdfrwt>
<totfact> 0.84033485E+03</totfact>
</mgrwt>
</event>
<event>
 9    1  0.2098759E-002  0.2755285E+03  0.7818608E-02  0.1098157E+00
          1   -1    0    0  501    0  0.00000000000E+00  0.00000000000E+00  0.31117891916E+04  0.31117891916E+04  0.00000000000E+00 0.  1.
         -1   -1    0    0    0  501 -0.00000000000E+00 -0.00000000000E+00 -0.60990614048E+01  0.60990614048E+01  0.00000000000E+00 0.  1.
         36    2    1    2    0    0  0.00000000000E+00  0.00000000000E+00  0.31056901302E+04  0.31178882531E+04  0.27552853470E+03 0.  0.
         25    2    3    3    0    0  0.42914790559E+02 -0.41425930260E+02  0.13526097001E+04  0.13590247581E+04  0.11763292680E+03 0.  0.
         25    2    3    3    0    0 -0.42914790559E+02  0.41425930260E+02  0.17530804302E+04  0.17588634950E+04  0.12942956487E+03 0.  0.
          5    1    4    4  502    0  0.22254398302E+02  0.27329382519E+02  0.14582102129E+03  0.15009334977E+03  0.47000000000E+01 0.  1.
         -5    1    4    4    0  502  0.20660392257E+02 -0.68755312779E+02  0.12067886788E+04  0.12089314083E+04  0.47000000000E+01 0.  1.
          5    1    5    5  503    0 -0.64065080492E+02 -0.27484804581E+02  0.79571901808E+03  0.79878069253E+03  0.47000000000E+01 0.  1.
         -5    1    5    5    0  503  0.21150289933E+02  0.68910734841E+02  0.95736141211E+03  0.96008280244E+03  0.47000000000E+01 0.  1.
<mgrwt>
<rscale>  0 0.27552853E+03</rscale>
<asrwt>0</asrwt>
<pdfrwt beam="1">  1        1 0.47873553E+00 0.27552853E+03</pdfrwt>
<pdfrwt beam="2">  1       -1 0.93831962E-03 0.27552853E+03</pdfrwt>
<totfact> 0.12449071E+03</totfact>
</mgrwt>
</event>
<event>
 9    1  0.2098759E-002  0.2757134E+03  0.7818608E-02  0.1098053E+00
         -1   -1    0    0    0  501 -0.00000000000E+00  0.00000000000E+00  0.15610471228E+03  0.15610471228E+03  0.00000000000E+00 0.  1.
          1   -1    0    0  501    0  0.00000000000E+00 -0.00000000000E+00 -0.12174179286E+03  0.12174179286E+03  0.00000000000E+00 0.  1.
         36    2    1    2    0    0  0.71054273576E-14 -0.71054273576E-14  0.34362919427E+02  0.27784650514E+03  0.27571338413E+03 0.  0.
         25    2    3    3    0    0  0.13229403963E+02 -0.54299255716E+02  0.14003789394E+01  0.13617209200E+03  0.12416702975E+03 0.  0.
         25    2    3    3    0    0 -0.13229403963E+02  0.54299255716E+02  0.32962540488E+02  0.14167441314E+03  0.12594317752E+03 0.  0.
          5    1    4    4  502    0 -0.84197294153E+01 -0.86458181943E+02 -0.23179615321E+02  0.90029404279E+02  0.47000000000E+01 0. -1.
         -5    1    4    4    0  502  0.21649133378E+02  0.32158926227E+02  0.24579994261E+02  0.46142687719E+02  0.47000000000E+01 0. -1.
          5    1    5    5  503    0 -0.43008657103E+02 -0.22903916630E+02 -0.73632543954E+01  0.49503954368E+02  0.47000000000E+01 0. -1.
         -5    1    5    5    0  503  0.29779253140E+02  0.77203172346E+02  0.40325794883E+02  0.92170458776E+02  0.47000000000E+01 0. -1.
<mgrwt>
<rscale>  0 0.27571338E+03</rscale>
<asrwt>0</asrwt>
<pdfrwt beam="1">  1        1 0.18729507E-01 0.27571338E+03</pdfrwt>
<pdfrwt beam="2">  1       -1 0.24016109E-01 0.27571338E+03</pdfrwt>
<totfact> 0.41187093E+03</totfact>
</mgrwt>
</event>
<event>
 9    1  0.2098759E-002  0.2747565E+03  0.7818608E-02  0.1098588E+00
         -2   -1    0    0    0  501 -0.00000000000E+00  0.00000000000E+00  0.59889487542E+02  0.59889487542E+02  0.00000000000E+00 0.  1.
          2   -1    0    0  501    0  0.00000000000E+00 -0.00000000000E+00 -0.31512681325E+03  0.31512681325E+03  0.00000000000E+00 0.  1.
         36    2    1    2    0    0 -0.17763568394E-14  0.00000000000E+00 -0.25523732571E+03  0.37501630079E+03  0.27475649842E+03 0.  0.
         25    2    3    3    0    0  0.14794712406E+02  0.36988270349E+02 -0.12148628863E+03  0.18775315191E+03  0.13749658930E+03 0.  0.
         25    2    3    3    0    0 -0.14794712406E+02 -0.36988270349E+02 -0.13375103708E+03  0.18726314888E+03  0.12486445191E+03 0.  0.
          5    1    4    4  502    0  0.80431448791E+01  0.32004322337E+02 -0.15207640831E+03  0.15568652091E+03  0.47000000000E+01 0. -1.
         -5    1    4    4    0  502  0.67515675270E+01  0.49839480125E+01  0.30590119681E+02  0.32066631004E+02  0.47000000000E+01 0. -1.
          5    1    5    5  503    0 -0.58482439485E+01 -0.56303941740E+02 -0.14979045407E+03  0.16019864526E+03  0.47000000000E+01 0.  1.
         -5    1    5    5    0  503 -0.89464684575E+01  0.19315671391E+02  0.16039416988E+02  0.27064503624E+02  0.47000000000E+01 0.  1.
<mgrwt>
<rscale>  0 0.27475650E+03</rscale>
<asrwt>0</asrwt>
<pdfrwt beam="1">  1        2 0.48481049E-01 0.27475650E+03</pdfrwt>
<pdfrwt beam="2">  1       -2 0.92137671E-02 0.27475650E+03</pdfrwt>
<totfact> 0.77786487E+03</totfact>
</mgrwt>
</event>
<event>
 8    1  0.2098759E-002  0.2953635E+03  0.7818608E-02  0.1087582E+00
         -1   -1    0    0    0  501 -0.00000000000E+00  0.00000000000E+00  0.29539639002E+02  0.29539639002E+02  0.00000000000E+00 0. -1.
          1   -1    0    0  501    0  0.00000000000E+00 -0.00000000000E+00 -0.73832638881E+03  0.73832638881E+03  0.00000000000E+00 0. -1.
         25    2    1    2    0    0 -0.30001792445E+00  0.23503570463E+01 -0.14854071788E+03  0.19483622021E+03  0.12606027784E+03 0.  0.
         25    2    1    2    0    0  0.30001792445E+00 -0.23503570463E+01 -0.56024603193E+03  0.57302980760E+03  0.12034089046E+03 0.  0.
          5    1    3    3  502    0  0.29264286060E+02 -0.45245269096E+02 -0.26004282754E+02  0.60015377494E+02  0.47000000000E+01 0.  1.
         -5    1    3    3    0  502 -0.29564303985E+02  0.47595626143E+02 -0.12253643512E+03  0.13482084272E+03  0.47000000000E+01 0.  1.
          5    1    4    4  503    0  0.17530468132E+02 -0.31915575250E+02 -0.52244255998E+02  0.63855098005E+02  0.47000000000E+01 0.  1.
         -5    1    4    4    0  503 -0.17230450207E+02  0.29565218204E+02 -0.50800177593E+03  0.50917470960E+03  0.47000000000E+01 0.  1.
<mgrwt>
<rscale>  0 0.29536347E+03</rscale>
<asrwt>0</asrwt>
<pdfrwt beam="1">  1        1 0.11358867E+00 0.29536347E+03</pdfrwt>
<pdfrwt beam="2">  1       -1 0.45445600E-02 0.29536347E+03</pdfrwt>
<totfact> 0.52904553E+03</totfact>
</mgrwt>
</event>
<event>
 9    1  0.2098759E-002  0.2823435E+03  0.7818608E-02  0.1094416E+00
         -2   -1    0    0    0  501 -0.00000000000E+00  0.00000000000E+00  0.23890089168E+02  0.23890089168E+02  0.00000000000E+00 0.  1.
          2   -1    0    0  501    0  0.00000000000E+00 -0.00000000000E+00 -0.83421448990E+03  0.83421448990E+03  0.00000000000E+00 0.  1.
         36    2    1    2    0    0 -0.35527136788E-14  0.71054273576E-14 -0.81032440073E+03  0.85810457907E+03  0.28234346849E+03 0.  0.
         25    2    3    3    0    0 -0.26639071281E+02  0.50259522869E+02 -0.52196249135E+03  0.54162255009E+03  0.13294541975E+03 0.  0.
         25    2    3    3    0    0  0.26639071281E+02 -0.50259522869E+02 -0.28836190938E+03  0.31648202897E+03  0.11735682394E+03 0.  0.
          5    1    4    4  502    0 -0.20025504494E+02 -0.22844889205E+02 -0.26075965627E+02  0.40310740212E+02  0.47000000000E+01 0. -1.
         -5    1    4    4    0  502 -0.66135667871E+01  0.73104412074E+02 -0.49588652573E+03  0.50131180988E+03  0.47000000000E+01 0. -1.
          5    1    5    5  503    0  0.49256089455E+02 -0.15147303417E+02 -0.42240767655E+02  0.66798020938E+02  0.47000000000E+01 0.  1.
         -5    1    5    5    0  503 -0.22617018174E+02 -0.35112219452E+02 -0.24612114172E+03  0.24968400804E+03  0.47000000000E+01 0.  1.
<mgrwt>
<rscale>  0 0.28234347E+03</rscale>
<asrwt>0</asrwt>
<pdfrwt beam="1">  1        2 0.12834071E+00 0.28234347E+03</pdfrwt>
<pdfrwt beam="2">  1       -2 0.36753979E-02 0.28234347E+03</pdfrwt>
<totfact> 0.10472504E+04</totfact>
</mgrwt>
</event>
<event>
 9    1  0.2098759E-002  0.2745353E+03  0.7818608E-02  0.1098712E+00
          1   -1    0    0  501    0  0.00000000000E+00  0.00000000000E+00  0.11017586244E+04  0.11017586244E+04  0.00000000000E+00 0. -1.
         -1   -1    0    0    0  501 -0.00000000000E+00 -0.00000000000E+00 -0.17102114436E+02  0.17102114436E+02  0.00000000000E+00 0. -1.
         36    2    1    2    0    0  0.35527136788E-14  0.35527136788E-14  0.10846565100E+04  0.11188607389E+04  0.27453525876E+03 0.  0.
         25    2    3    3    0    0  0.18691184416E-01  0.13889561398E+02  0.32817326344E+03  0.35287422074E+03  0.12895582407E+03 0.  0.
         25    2    3    3    0    0 -0.18691184416E-01 -0.13889561398E+02  0.75648324657E+03  0.76598651814E+03  0.11948022165E+03 0.  0.
          5    1    4    4  502    0  0.84702672422E+01  0.38788331257E+02  0.22185278633E+02  0.45722605535E+02  0.47000000000E+01 0.  1.
         -5    1    4    4    0  502 -0.84515760577E+01 -0.24898769859E+02  0.30598798480E+03  0.30715161520E+03  0.47000000000E+01 0.  1.
          5    1    5    5  503    0  0.44319731809E+02 -0.24508688446E+02  0.61854696746E+03  0.62063463922E+03  0.47000000000E+01 0. -1.
         -5    1    5    5    0  503 -0.44338422993E+02  0.10619127048E+02  0.13793627911E+03  0.14535187893E+03  0.47000000000E+01 0. -1.
<mgrwt>
<rscale>  0 0.27453526E+03</rscale>
<asrwt>0</asrwt>
<pdfrwt beam="1">  1        1 0.16950127E+00 0.27453526E+03</pdfrwt>
<pdfrwt beam="2">  1       -1 0.26310954E-02 0.27453526E+03</pdfrwt>
<totfact> 0.61585512E+03</totfact>
</mgrwt>
</event>
<event>
 9    1  0.2098759E-002  0.2753338E+03  0.7818608E-02  0.1098265E+00
         -3   -1    0    0    0  501 -0.00000000000E+00  0.00000000000E+00  0.82489086760E+03  0.82489086760E+03  0.00000000000E+00 0.  1.
          3   -1    0    0  501    0  0.00000000000E+00 -0.00000000000E+00 -0.22975367905E+02  0.22975367905E+02  0.00000000000E+00 0.  1.
         36    2    1    2    0    0 -0.14210854715E-13 -0.71054273576E-14  0.80191549969E+03  0.84786623550E+03  0.27533376956E+03 0.  0.
         25    2    3    3    0    0 -0.54807494332E+02 -0.18205748091E+02  0.46326580901E+03  0.48319879583E+03  0.12462165056E+03 0.  0.
         25    2    3    3    0    0  0.54807494332E+02  0.18205748091E+02  0.33864969068E+03  0.36466743967E+03  0.12232505003E+03 0.  0.
          5    1    4    4  502    0  0.13807857278E+02 -0.15179699728E+01  0.10788647722E+00  0.14665019432E+02  0.47000000000E+01 0.  1.
         -5    1    4    4    0  502 -0.68615351609E+02 -0.16687778119E+02  0.46315792254E+03  0.46853377640E+03  0.47000000000E+01 0.  1.
          5    1    5    5  503    0 -0.34495392605E+02 -0.56759272088E+01  0.47541294904E+02  0.59198082586E+02  0.47000000000E+01 0.  1.
         -5    1    5    5    0  503  0.89302886937E+02  0.23881675300E+02  0.29110839577E+03  0.30546935709E+03  0.47000000000E+01 0.  1.
<mgrwt>
<rscale>  0 0.27533377E+03</rscale>
<asrwt>0</asrwt>
<pdfrwt beam="1">  1        3 0.35346726E-02 0.27533377E+03</pdfrwt>
<pdfrwt beam="2">  1       -3 0.12690626E+00 0.27533377E+03</pdfrwt>
<totfact> 0.51678828E+02</totfact>
</mgrwt>
</event>
<event>
 9    1  0.2098759E-002  0.2750008E+03  0.7818608E-02  0.1098451E+00
          3   -1    0    0  501    0  0.00000000000E+00  0.00000000000E+00  0.12515965871E+03  0.12515965871E+03  0.00000000000E+00 0. -1.
         -3   -1    0    0    0  501 -0.00000000000E+00 -0.00000000000E+00 -0.15105790204E+03  0.15105790204E+03  0.00000000000E+00 0. -1.
         36    2    1    2    0    0 -0.14210854715E-13  0.00000000000E+00 -0.25898243332E+02  0.27621756074E+03  0.27500076701E+03 0.  0.
         25    2    3    3    0    0 -0.30548075593E+02  0.17672198325E+02 -0.59594130832E+02  0.14259710256E+03  0.12464742963E+03 0.  0.
         25    2    3    3    0    0  0.30548075593E+02 -0.17672198325E+02  0.33695887500E+02  0.13362045818E+03  0.12439261431E+03 0.  0.
          5    1    4    4  502    0  0.38893443588E+02  0.25439301155E+02 -0.55364020606E+02  0.72437026272E+02  0.47000000000E+01 0. -1.
         -5    1    4    4    0  502 -0.69441519181E+02 -0.77671028298E+01 -0.42301102255E+01  0.70160076290E+02  0.47000000000E+01 0. -1.
          5    1    5    5  503    0  0.78895219108E+02 -0.15503372688E+02  0.18019823697E+02  0.82532503954E+02  0.47000000000E+01 0.  1.
         -5    1    5    5    0  503 -0.48347143515E+02 -0.21688256376E+01  0.15676063802E+02  0.51087954226E+02  0.47000000000E+01 0.  1.
<mgrwt>
<rscale>  0 0.27500077E+03</rscale>
<asrwt>0</asrwt>
<pdfrwt beam="1">  1        3 0.19255332E-01 0.27500077E+03</pdfrwt>
<pdfrwt beam="2">  1       -3 0.23239677E-01 0.27500077E+03</pdfrwt>
<totfact> 0.10470193E+03</totfact>
</mgrwt>
</event>
<event>
 9    1  0.2098759E-002  0.2746333E+03  0.7818608E-02  0.1098657E+00
          1   -1    0    0  501    0  0.00000000000E+00  0.00000000000E+00  0.19960901646E+04  0.19960901646E+04  0.00000000000E+00 0. -1.
         -1   -1    0    0    0  501 -0.00000000000E+00 -0.00000000000E+00 -0.94463984881E+01  0.94463984881E+01  0.00000000000E+00 0. -1.
         36    2    1    2    0    0  0.71054273576E-14  0.71054273576E-14  0.19866437661E+04  0.20055365631E+04  0.27463330543E+03 0.  0.
         25    2    3    3    0    0  0.32697657441E+02  0.52516458236E+02  0.11261733422E+04  0.11340722418E+04  0.11843284014E+03 0.  0.
         25    2    3    3    0    0 -0.32697657441E+02 -0.52516458236E+02  0.86047042385E+03  0.87146432128E+03  0.12334341393E+03 0.  0.
          5    1    4    4  502    0  0.70329515731E+02  0.95495291603E+01  0.46360493746E+03  0.46902991624E+03  0.47000000000E+01 0. -1.
         -5    1    4    4    0  502 -0.37631858290E+02  0.42966929076E+02  0.66256840479E+03  0.66504232556E+03  0.47000000000E+01 0. -1.
          5    1    5    5  503    0  0.19222440012E+02 -0.30808759009E+02  0.70677327588E+03  0.70772115648E+03  0.47000000000E+01 0.  1.
         -5    1    5    5    0  503 -0.51920097453E+02 -0.21707699228E+02  0.15369714797E+03  0.16374316480E+03  0.47000000000E+01 0.  1.
<mgrwt>
<rscale>  0 0.27463331E+03</rscale>
<asrwt>0</asrwt>
<pdfrwt beam="1">  1        1 0.30709046E+00 0.27463331E+03</pdfrwt>
<pdfrwt beam="2">  1       -1 0.14532937E-02 0.27463331E+03</pdfrwt>
<totfact> 0.37089636E+03</totfact>
</mgrwt>
</event>
<event>
 9    1  0.2098759E-002  0.2760105E+03  0.7818608E-02  0.1097888E+00
         -2   -1    0    0    0  501 -0.00000000000E+00  0.00000000000E+00  0.59321336122E+02  0.59321336122E+02  0.00000000000E+00 0.  1.
          2   -1    0    0  501    0  0.00000000000E+00 -0.00000000000E+00 -0.32105553545E+03  0.32105553545E+03  0.00000000000E+00 0.  1.
         36    2    1    2    0    0  0.71054273576E-14  0.35527136788E-14 -0.26173419932E+03  0.38037687157E+03  0.27601045873E+03 0.  0.
         25    2    3    3    0    0 -0.47804285938E+02 -0.26916015025E+02 -0.85493535350E+02  0.15537551035E+03  0.11756990691E+03 0.  0.
         25    2    3    3    0    0  0.47804285938E+02  0.26916015025E+02 -0.17624066397E+03  0.22500136122E+03  0.12866669847E+03 0.  0.
          5    1    4    4  502    0 -0.13530915547E+01 -0.11820877738E+02 -0.10261260776E+03  0.10340696919E+03  0.47000000000E+01 0. -1.
         -5    1    4    4    0  502 -0.46451194383E+02 -0.15095137287E+02  0.17119072408E+02  0.51968541152E+02  0.47000000000E+01 0. -1.
          5    1    5    5  503    0 -0.87857659917E+01 -0.23813961264E+02 -0.13686461719E+03  0.13927780826E+03  0.47000000000E+01 0. -1.
         -5    1    5    5    0  503  0.56590051930E+02  0.50729976289E+02 -0.39376046779E+02  0.85723552957E+02  0.47000000000E+01 0. -1.
<mgrwt>
<rscale>  0 0.27601046E+03</rscale>
<asrwt>0</asrwt>
<pdfrwt beam="1">  1        2 0.49393159E-01 0.27601046E+03</pdfrwt>
<pdfrwt beam="2">  1       -2 0.91263595E-02 0.27601046E+03</pdfrwt>
<totfact> 0.77411156E+03</totfact>
</mgrwt>
</event>
<event>
 9    1  0.2098759E-002  0.2747040E+03  0.7818608E-02  0.1098617E+00
          2   -1    0    0  501    0  0.00000000000E+00  0.00000000000E+00  0.27340940516E+03  0.27340940516E+03  0.00000000000E+00 0.  1.
         -2   -1    0    0    0  501 -0.00000000000E+00 -0.00000000000E+00 -0.69001176625E+02  0.69001176625E+02  0.00000000000E+00 0.  1.
         36    2    1    2    0    0  0.00000000000E+00  0.71054273576E-14  0.20440822854E+03  0.34241058179E+03  0.27470399092E+03 0.  0.
         25    2    3    3    0    0 -0.32124725421E+02 -0.24069644989E+02  0.13954016348E+03  0.19709435178E+03  0.13327933256E+03 0.  0.
         25    2    3    3    0    0  0.32124725421E+02  0.24069644989E+02  0.64868065060E+02  0.14531623001E+03  0.12368344693E+03 0.  0.
          5    1    4    4  502    0 -0.21818034110E+02  0.51911966263E+02  0.88019009625E+02  0.10459596029E+03  0.47000000000E+01 0. -1.
         -5    1    4    4    0  502 -0.10306691312E+02 -0.75981611252E+02  0.51521153854E+02  0.92498391493E+02  0.47000000000E+01 0. -1.
          5    1    5    5  503    0  0.38261109289E+02  0.60732070008E-01 -0.28923076945E+02  0.48192847523E+02  0.47000000000E+01 0. -1.
         -5    1    5    5    0  503 -0.61363838682E+01  0.24008912919E+02  0.93791142004E+02  0.97123382483E+02  0.47000000000E+01 0. -1.
<mgrwt>
<rscale>  0 0.27470399E+03</rscale>
<asrwt>0</asrwt>
<pdfrwt beam="1">  1        2 0.42062985E-01 0.27470399E+03</pdfrwt>
<pdfrwt beam="2">  1       -2 0.10615566E-01 0.27470399E+03</pdfrwt>
<totfact> 0.72370179E+03</totfact>
</mgrwt>
</event>
<event>
 9    1  0.2098759E-002  0.2751572E+03  0.7818608E-02  0.1098364E+00
         -2   -1    0    0    0  501 -0.00000000000E+00  0.00000000000E+00  0.32679819256E+02  0.32679819256E+02  0.00000000000E+00 0. -1.
          2   -1    0    0  501    0  0.00000000000E+00 -0.00000000000E+00 -0.57919150822E+03  0.57919150822E+03  0.00000000000E+00 0. -1.
         36    2    1    2    0    0  0.00000000000E+00 -0.71054273576E-14 -0.54651168897E+03  0.61187132748E+03  0.27515721908E+03 0.  0.
         25    2    3    3    0    0 -0.44198149295E+02 -0.33334558221E+02 -0.29149328423E+03  0.32262488422E+03  0.12670363845E+03 0.  0.
         25    2    3    3    0    0  0.44198149295E+02  0.33334558221E+02 -0.25501840474E+03  0.28924644326E+03  0.12475756093E+03 0.  0.
          5    1    4    4  502    0 -0.49679997692E+02 -0.63603160666E+02 -0.99861334945E+02  0.12848284101E+03  0.47000000000E+01 0.  1.
         -5    1    4    4    0  502  0.54818483972E+01  0.30268602445E+02 -0.19163194928E+03  0.19414204321E+03  0.47000000000E+01 0.  1.
          5    1    5    5  503    0 -0.18742330531E+02 -0.18759468459E+02 -0.16661869116E+03  0.16878113299E+03  0.47000000000E+01 0.  1.
         -5    1    5    5    0  503  0.62940479826E+02  0.52094026679E+02 -0.88399713585E+02  0.12046531027E+03  0.47000000000E+01 0.  1.
<mgrwt>
<rscale>  0 0.27515722E+03</rscale>
<asrwt>0</asrwt>
<pdfrwt beam="1">  1        2 0.89106379E-01 0.27515722E+03</pdfrwt>
<pdfrwt beam="2">  1       -2 0.50276649E-02 0.27515722E+03</pdfrwt>
<totfact> 0.10159343E+04</totfact>
</mgrwt>
</event>
<event>
 9    1  0.2098759E-002  0.2745725E+03  0.7818608E-02  0.1098691E+00
          1   -1    0    0  501    0  0.00000000000E+00  0.00000000000E+00  0.48810683458E+03  0.48810683458E+03  0.00000000000E+00 0. -1.
         -1   -1    0    0    0  501 -0.00000000000E+00 -0.00000000000E+00 -0.38613493251E+02  0.38613493251E+02  0.00000000000E+00 0. -1.
         36    2    1    2    0    0  0.00000000000E+00 -0.35527136788E-14  0.44949334133E+03  0.52672032783E+03  0.27457246739E+03 0.  0.
         25    2    3    3    0    0  0.46140515278E+02 -0.24980789690E+02  0.26198736463E+03  0.29560261271E+03  0.12645370066E+03 0.  0.
         25    2    3    3    0    0 -0.46140515278E+02  0.24980789690E+02  0.18750597670E+03  0.23111771512E+03  0.12451473785E+03 0.  0.
          5    1    4    4  502    0  0.25928568586E+02 -0.27074926865E+02  0.53957280571E+01  0.38164724746E+02  0.47000000000E+01 0. -1.
         -5    1    4    4    0  502  0.20211946692E+02  0.20941371744E+01  0.25659163658E+03  0.25743788797E+03  0.47000000000E+01 0. -1.
          5    1    5    5  503    0 -0.76416862652E+02  0.20346601293E+01  0.17470465647E+03  0.19075503592E+03  0.47000000000E+01 0. -1.
         -5    1    5    5    0  503  0.30276347374E+02  0.22946129561E+02  0.12801320229E+02  0.40362679194E+02  0.47000000000E+01 0. -1.
<mgrwt>
<rscale>  0 0.27457247E+03</rscale>
<asrwt>0</asrwt>
<pdfrwt beam="1">  1        1 0.75093355E-01 0.27457247E+03</pdfrwt>
<pdfrwt beam="2">  1       -1 0.59405378E-02 0.27457247E+03</pdfrwt>
<totfact> 0.62946557E+03</totfact>
</mgrwt>
</event>
<event>
 9    1  0.2098759E-002  0.2757701E+03  0.7818608E-02  0.1098022E+00
          2   -1    0    0  501    0  0.00000000000E+00  0.00000000000E+00  0.36062153099E+04  0.36062153099E+04  0.00000000000E+00 0. -1.
         -2   -1    0    0    0  501 -0.00000000000E+00 -0.00000000000E+00 -0.52720893548E+01  0.52720893548E+01  0.00000000000E+00 0. -1.
         36    2    1    2    0    0  0.71054273576E-14  0.00000000000E+00  0.36009432206E+04  0.36114873993E+04  0.27577011692E+03 0.  0.
         25    2    3    3    0    0  0.35182758016E+02 -0.43059074805E+02  0.18945943231E+04  0.18994757619E+04  0.12421195897E+03 0.  0.
         25    2    3    3    0    0 -0.35182758016E+02  0.43059074805E+02  0.17063488975E+04  0.17120116373E+04  0.12753578341E+03 0.  0.
          5    1    4    4  502    0  0.20172672923E+02  0.41533635296E+02  0.88741445244E+03  0.88862730095E+03  0.47000000000E+01 0.  1.
         -5    1    4    4    0  502  0.15010085093E+02 -0.84592710101E+02  0.10071798706E+04  0.10108484610E+04  0.47000000000E+01 0.  1.
          5    1    5    5  503    0 -0.79810111503E+02  0.61605047083E+01  0.10810067556E+04  0.10839766148E+04  0.47000000000E+01 0.  1.
         -5    1    5    5    0  503  0.44627353487E+02  0.36898570097E+02  0.62534214191E+03  0.62803502259E+03  0.47000000000E+01 0.  1.
<mgrwt>
<rscale>  0 0.27577012E+03</rscale>
<asrwt>0</asrwt>
<pdfrwt beam="1">  1        2 0.55480038E+00 0.27577012E+03</pdfrwt>
<pdfrwt beam="2">  1       -2 0.81109355E-03 0.27577012E+03</pdfrwt>
<totfact> 0.24857927E+03</totfact>
</mgrwt>
</event>
<event>
 9    1  0.2098759E-002  0.2753482E+03  0.7818608E-02  0.1098257E+00
          3   -1    0    0  501    0  0.00000000000E+00  0.00000000000E+00  0.55959565390E+02  0.55959565390E+02  0.00000000000E+00 0. -1.
         -3   -1    0    0    0  501 -0.00000000000E+00 -0.00000000000E+00 -0.33871154966E+03  0.33871154966E+03  0.00000000000E+00 0. -1.
         36    2    1    2    0    0  0.00000000000E+00  0.00000000000E+00 -0.28275198427E+03  0.39467111505E+03  0.27534815134E+03 0.  0.
         25    2    3    3    0    0  0.57746014518E+02 -0.24219512208E+02 -0.16609367923E+03  0.21427062200E+03  0.12001500826E+03 0.  0.
         25    2    3    3    0    0 -0.57746014518E+02  0.24219512208E+02 -0.11665830504E+03  0.18040049305E+03  0.12253159101E+03 0.  0.
          5    1    4    4  502    0  0.68959768818E+02 -0.54531435566E+02 -0.69081084267E+02  0.11190805772E+03  0.47000000000E+01 0.  1.
         -5    1    4    4    0  502 -0.11213754300E+02  0.30311923358E+02 -0.97012594963E+02  0.10236256427E+03  0.47000000000E+01 0.  1.
          5    1    5    5  503    0 -0.94464135955E+01  0.13720125802E+02 -0.12825173943E+03  0.12941435488E+03  0.47000000000E+01 0. -1.
         -5    1    5    5    0  503 -0.48299600923E+02  0.10499386406E+02  0.11593434396E+02  0.50986138168E+02  0.47000000000E+01 0. -1.
<mgrwt>
<rscale>  0 0.27534815E+03</rscale>
<asrwt>0</asrwt>
<pdfrwt beam="1">  1        3 0.86091639E-02 0.27534815E+03</pdfrwt>
<pdfrwt beam="2">  1       -3 0.52109470E-01 0.27534815E+03</pdfrwt>
<totfact> 0.88352800E+02</totfact>
</mgrwt>
</event>
<event>
 9    1  0.2098759E-002  0.2754962E+03  0.7818608E-02  0.1098175E+00
          2   -1    0    0  501    0  0.00000000000E+00  0.00000000000E+00  0.56347891143E+03  0.56347891143E+03  0.00000000000E+00 0.  1.
         -2   -1    0    0    0  501 -0.00000000000E+00 -0.00000000000E+00 -0.33673913969E+02  0.33673913969E+02  0.00000000000E+00 0.  1.
         36    2    1    2    0    0  0.00000000000E+00  0.71054273576E-14  0.52980499746E+03  0.59715282540E+03  0.27549620968E+03 0.  0.
         25    2    3    3    0    0  0.32578234320E+02  0.18376285008E+02  0.17680092097E+03  0.22028528276E+03  0.12596829339E+03 0.  0.
         25    2    3    3    0    0 -0.32578234320E+02 -0.18376285008E+02  0.35300407649E+03  0.37686754264E+03  0.12656317584E+03 0.  0.
          5    1    4    4  502    0  0.27766395381E+02  0.71148571970E+01 -0.11710497931E+02  0.31318040602E+02  0.47000000000E+01 0.  1.
         -5    1    4    4    0  502  0.48118389390E+01  0.11261427811E+02  0.18851141890E+03  0.18896724215E+03  0.47000000000E+01 0.  1.
          5    1    5    5  503    0 -0.30018565259E+02  0.52583016641E+02  0.16923369760E+03  0.17980050696E+03  0.47000000000E+01 0. -1.
         -5    1    5    5    0  503 -0.25596690604E+01 -0.70959301650E+02  0.18377037889E+03  0.19706703568E+03  0.47000000000E+01 0. -1.
<mgrwt>
<rscale>  0 0.27549621E+03</rscale>
<asrwt>0</asrwt>
<pdfrwt beam="1">  1        2 0.86689056E-01 0.27549621E+03</pdfrwt>
<pdfrwt beam="2">  1       -2 0.51806026E-02 0.27549621E+03</pdfrwt>
<totfact> 0.10018498E+04</totfact>
</mgrwt>
</event>
<event>
 9    1  0.2098759E-002  0.2748700E+03  0.7818608E-02  0.1098524E+00
         -1   -1    0    0    0  501 -0.00000000000E+00  0.00000000000E+00  0.10599592724E+02  0.10599592724E+02  0.00000000000E+00 0.  1.
          1   -1    0    0  501    0  0.00000000000E+00 -0.00000000000E+00 -0.17819909693E+04  0.17819909693E+04  0.00000000000E+00 0.  1.
         36    2    1    2    0    0  0.00000000000E+00  0.00000000000E+00 -0.17713913766E+04  0.17925905620E+04  0.27486999481E+03 0.  0.
         25    2    3    3    0    0  0.48993146609E+02  0.15005134292E+02 -0.70473186602E+03  0.71772662043E+03  0.12593258602E+03 0.  0.
         25    2    3    3    0    0 -0.48993146609E+02 -0.15005134292E+02 -0.10666595105E+04  0.10748639416E+04  0.12224769531E+03 0.  0.
          5    1    4    4  502    0 -0.35173208364E+02  0.79060638052E+01 -0.87915355862E+02  0.95136009102E+02  0.47000000000E+01 0. -1.
         -5    1    4    4    0  502  0.84166354973E+02  0.70990704864E+01 -0.61681651016E+03  0.62259061133E+03  0.47000000000E+01 0. -1.
          5    1    5    5  503    0 -0.26255795908E+02 -0.59752094420E+01 -0.10310113007E+04  0.10313735803E+04  0.47000000000E+01 0. -1.
         -5    1    5    5    0  503 -0.22737350701E+02 -0.90299248497E+01 -0.35648209808E+02  0.43490361257E+02  0.47000000000E+01 0. -1.
<mgrwt>
<rscale>  0 0.27486999E+03</rscale>
<asrwt>0</asrwt>
<pdfrwt beam="1">  1        1 0.27415220E+00 0.27486999E+03</pdfrwt>
<pdfrwt beam="2">  1       -1 0.16307081E-02 0.27486999E+03</pdfrwt>
<totfact> 0.43195899E+03</totfact>
</mgrwt>
</event>
<event>
 9    1  0.2098759E-002  0.2796806E+03  0.7818608E-02  0.1095864E+00
          2   -1    0    0  501    0  0.00000000000E+00  0.00000000000E+00  0.18097363034E+03  0.18097363034E+03  0.00000000000E+00 0. -1.
         -2   -1    0    0    0  501 -0.00000000000E+00 -0.00000000000E+00 -0.10805613995E+03  0.10805613995E+03  0.00000000000E+00 0. -1.
         36    2    1    2    0    0 -0.71054273576E-14 -0.71054273576E-14  0.72917490389E+02  0.28902977028E+03  0.27968061732E+03 0.  0.
         25    2    3    3    0    0  0.40053596395E+02 -0.49670793632E+02  0.61299370062E+02  0.15091119943E+03  0.12225014936E+03 0.  0.
         25    2    3    3    0    0 -0.40053596395E+02  0.49670793632E+02  0.11618120328E+02  0.13811857085E+03  0.12194375987E+03 0.  0.
          5    1    4    4  502    0  0.72092889350E+02 -0.33980248889E+02  0.77663999507E+02  0.11138145640E+03  0.47000000000E+01 0. -1.
         -5    1    4    4    0  502 -0.32039292955E+02 -0.15690544743E+02 -0.16364629445E+02  0.39529743033E+02  0.47000000000E+01 0. -1.
          5    1    5    5  503    0 -0.50885022132E+02  0.64595350216E+02 -0.33680510323E+02  0.88984894912E+02  0.47000000000E+01 0.  1.
         -5    1    5    5    0  503  0.10831425737E+02 -0.14924556584E+02  0.45298630651E+02  0.49133675941E+02  0.47000000000E+01 0.  1.
<mgrwt>
<rscale>  0 0.27968062E+03</rscale>
<asrwt>0</asrwt>
<pdfrwt beam="1">  1        2 0.27842097E-01 0.27968062E+03</pdfrwt>
<pdfrwt beam="2">  1       -2 0.16624022E-01 0.27968062E+03</pdfrwt>
<totfact> 0.54567457E+03</totfact>
</mgrwt>
</event>
<event>
 9    1  0.2098759E-002  0.2611473E+03  0.7818608E-02  0.1106456E+00
          2   -1    0    0  501    0  0.00000000000E+00  0.00000000000E+00  0.58312589378E+02  0.58312589378E+02  0.00000000000E+00 0. -1.
         -2   -1    0    0    0  501 -0.00000000000E+00 -0.00000000000E+00 -0.29238074092E+03  0.29238074092E+03  0.00000000000E+00 0. -1.
         36    2    1    2    0    0  0.00000000000E+00  0.00000000000E+00 -0.23406815155E+03  0.35069333030E+03  0.26114730010E+03 0.  0.
         25    2    3    3    0    0 -0.67695292609E+00  0.78726879747E-02 -0.12881272608E+03  0.17890497681E+03  0.12415238219E+03 0.  0.
         25    2    3    3    0    0  0.67695292609E+00 -0.78726879747E-02 -0.10525542547E+03  0.17178835349E+03  0.13576477995E+03 0.  0.
          5    1    4    4  502    0  0.18120696805E+02  0.59084182726E+02 -0.64875517558E+02  0.89723035389E+02  0.47000000000E+01 0.  1.
         -5    1    4    4    0  502 -0.18797649731E+02 -0.59076310038E+02 -0.63937208518E+02  0.89181941424E+02  0.47000000000E+01 0.  1.
          5    1    5    5  503    0  0.17225663886E+02 -0.55686785722E+02 -0.88601596349E+01  0.59146716131E+02  0.47000000000E+01 0. -1.
         -5    1    5    5    0  503 -0.16548710960E+02  0.55678913034E+02 -0.96395265834E+02  0.11264163736E+03  0.47000000000E+01 0. -1.
<mgrwt>
<rscale>  0 0.26114730E+03</rscale>
<asrwt>0</asrwt>
<pdfrwt beam="1">  1        2 0.89711678E-02 0.26114730E+03</pdfrwt>
<pdfrwt beam="2">  1       -2 0.44981652E-01 0.26114730E+03</pdfrwt>
<totfact> 0.34594249E+03</totfact>
</mgrwt>
</event>
<event>
 9    1  0.2098759E-002  0.2750266E+03  0.7818608E-02  0.1098437E+00
          2   -1    0    0  501    0  0.00000000000E+00  0.00000000000E+00  0.16138478540E+04  0.16138478540E+04  0.00000000000E+00 0. -1.
         -2   -1    0    0    0  501 -0.00000000000E+00 -0.00000000000E+00 -0.11717277665E+02  0.11717277665E+02  0.00000000000E+00 0. -1.
         36    2    1    2    0    0  0.71054273576E-14  0.00000000000E+00  0.16021305764E+04  0.16255651317E+04  0.27502656900E+03 0.  0.
         25    2    3    3    0    0  0.33637147886E+02  0.32953286867E+02  0.58205490123E+03  0.59660256551E+03  0.12218566320E+03 0.  0.
         25    2    3    3    0    0 -0.33637147886E+02 -0.32953286867E+02  0.10200756751E+04  0.10289625662E+04  0.12646028143E+03 0.  0.
          5    1    4    4  502    0  0.30969950905E+02  0.52209754456E+02  0.12429956457E+03  0.13841050564E+03  0.47000000000E+01 0. -1.
         -5    1    4    4    0  502  0.26671969809E+01 -0.19256467590E+02  0.45775533666E+03  0.45819205987E+03  0.47000000000E+01 0. -1.
          5    1    5    5  503    0  0.21008468929E+02 -0.36602380227E+02  0.83033172315E+03  0.83141683316E+03  0.47000000000E+01 0.  1.
         -5    1    5    5    0  503 -0.54645616815E+02  0.36490933603E+01  0.18974395200E+03  0.19754573303E+03  0.47000000000E+01 0.  1.
<mgrwt>
<rscale>  0 0.27502657E+03</rscale>
<asrwt>0</asrwt>
<pdfrwt beam="1">  1        2 0.24828411E+00 0.27502657E+03</pdfrwt>
<pdfrwt beam="2">  1       -2 0.18026594E-02 0.27502657E+03</pdfrwt>
<totfact> 0.10688234E+04</totfact>
</mgrwt>
</event>
<event>
 9    1  0.2098759E-002  0.2743731E+03  0.7818608E-02  0.1098803E+00
         -2   -1    0    0    0  501 -0.00000000000E+00  0.00000000000E+00  0.24402022398E+02  0.24402022398E+02  0.00000000000E+00 0. -1.
          2   -1    0    0  501    0  0.00000000000E+00 -0.00000000000E+00 -0.77125353731E+03  0.77125353731E+03  0.00000000000E+00 0. -1.
         36    2    1    2    0    0 -0.71054273576E-14 -0.71054273576E-14 -0.74685151491E+03  0.79565555971E+03  0.27437307515E+03 0.  0.
         25    2    3    3    0    0  0.53082294046E+02  0.23243910062E+02 -0.30200640613E+03  0.32992384578E+03  0.11951512615E+03 0.  0.
         25    2    3    3    0    0 -0.53082294046E+02 -0.23243910062E+02 -0.44484510879E+03  0.46573171392E+03  0.12514331484E+03 0.  0.
          5    1    4    4  502    0  0.36484418201E+00  0.61771574144E+02 -0.19374354589E+03  0.20340725665E+03  0.47000000000E+01 0. -1.
         -5    1    4    4    0  502  0.52717449864E+02 -0.38527664081E+02 -0.10826286023E+03  0.12651658913E+03  0.47000000000E+01 0. -1.
          5    1    5    5  503    0 -0.27259816304E+02 -0.74111583662E+02 -0.22276831631E+03  0.23639677910E+03  0.47000000000E+01 0.  1.
         -5    1    5    5    0  503 -0.25822477742E+02  0.50867673600E+02 -0.22207679247E+03  0.22933493482E+03  0.47000000000E+01 0.  1.
<mgrwt>
<rscale>  0 0.27437308E+03</rscale>
<asrwt>0</asrwt>
<pdfrwt beam="1">  1        2 0.11865437E+00 0.27437308E+03</pdfrwt>
<pdfrwt beam="2">  1       -2 0.37541581E-02 0.27437308E+03</pdfrwt>
<totfact> 0.11201402E+04</totfact>
</mgrwt>
</event>
<event>
 9    1  0.2098759E-002  0.2748665E+03  0.7818608E-02  0.1098526E+00
          2   -1    0    0  501    0  0.00000000000E+00  0.00000000000E+00  0.28618002973E+03  0.28618002973E+03  0.00000000000E+00 0. -1.
         -2   -1    0    0    0  501 -0.00000000000E+00 -0.00000000000E+00 -0.66000044061E+02  0.66000044061E+02  0.00000000000E+00 0. -1.
         36    2    1    2    0    0  0.35527136788E-14 -0.35527136788E-14  0.22017998567E+03  0.35218007379E+03  0.27486647356E+03 0.  0.
         25    2    3    3    0    0 -0.18487046746E+02 -0.22845104580E+02  0.45205416712E+02  0.13533504956E+03  0.12413048070E+03 0.  0.
         25    2    3    3    0    0  0.18487046746E+02  0.22845104580E+02  0.17497456896E+03  0.21684502423E+03  0.12466753809E+03 0.  0.
          5    1    4    4  502    0 -0.19985484235E+02 -0.69672542847E+02  0.39664348696E+01  0.72742734430E+02  0.47000000000E+01 0.  1.
         -5    1    4    4    0  502  0.14984374889E+01  0.46827438266E+02  0.41238981843E+02  0.62592315127E+02  0.47000000000E+01 0.  1.
          5    1    5    5  503    0 -0.46270307015E+02  0.31883787190E+02  0.48437936527E+02  0.74335999972E+02  0.47000000000E+01 0.  1.
         -5    1    5    5    0  503  0.64757353761E+02 -0.90386826094E+01  0.12653663243E+03  0.14250902426E+03  0.47000000000E+01 0.  1.
<mgrwt>
<rscale>  0 0.27486647E+03</rscale>
<asrwt>0</asrwt>
<pdfrwt beam="1">  1        2 0.44027696E-01 0.27486647E+03</pdfrwt>
<pdfrwt beam="2">  1       -2 0.10153853E-01 0.27486647E+03</pdfrwt>
<totfact> 0.73965861E+03</totfact>
</mgrwt>
</event>
<event>
 9    1  0.2098759E-002  0.2756899E+03  0.7818608E-02  0.1098067E+00
          1   -1    0    0  501    0  0.00000000000E+00  0.00000000000E+00  0.12364645306E+03  0.12364645306E+03  0.00000000000E+00 0. -1.
         -1   -1    0    0    0  501 -0.00000000000E+00 -0.00000000000E+00 -0.15367386992E+03  0.15367386992E+03  0.00000000000E+00 0. -1.
         36    2    1    2    0    0  0.35527136788E-14  0.00000000000E+00 -0.30027416852E+02  0.27732032298E+03  0.27568989059E+03 0.  0.
         25    2    3    3    0    0  0.23055966375E+02  0.51715584310E+02  0.46909659858E+01  0.13829360793E+03  0.12608345485E+03 0.  0.
         25    2    3    3    0    0 -0.23055966375E+02 -0.51715584310E+02 -0.34718382838E+02  0.13902671505E+03  0.12213509792E+03 0.  0.
          5    1    4    4  502    0  0.98709115578E+01  0.53520017731E+02  0.60041505505E+02  0.81172036911E+02  0.47000000000E+01 0.  1.
         -5    1    4    4    0  502  0.13185054817E+02 -0.18044334219E+01 -0.55350539520E+02  0.57121571018E+02  0.47000000000E+01 0.  1.
          5    1    5    5  503    0 -0.55022780388E+01 -0.91021256352E+02 -0.24355023073E+02  0.94500800634E+02  0.47000000000E+01 0. -1.
         -5    1    5    5    0  503 -0.17553688336E+02  0.39305672042E+02 -0.10363359765E+02  0.44525914415E+02  0.47000000000E+01 0. -1.
<mgrwt>
<rscale>  0 0.27568989E+03</rscale>
<asrwt>0</asrwt>
<pdfrwt beam="1">  1        1 0.19022531E-01 0.27568989E+03</pdfrwt>
<pdfrwt beam="2">  1       -1 0.23642134E-01 0.27568989E+03</pdfrwt>
<totfact> 0.41430446E+03</totfact>
</mgrwt>
</event>
<event>
 9    1  0.2098759E-002  0.2752797E+03  0.7818608E-02  0.1098295E+00
          1   -1    0    0  501    0  0.00000000000E+00  0.00000000000E+00  0.47305925082E+02  0.47305925082E+02  0.00000000000E+00 0.  1.
         -1   -1    0    0    0  501 -0.00000000000E+00 -0.00000000000E+00 -0.40047276834E+03  0.40047276834E+03  0.00000000000E+00 0.  1.
         36    2    1    2    0    0  0.35527136788E-14 -0.71054273576E-14 -0.35316684325E+03  0.44777869342E+03  0.27527974700E+03 0.  0.
         25    2    3    3    0    0 -0.88884156862E+01  0.27329495074E+02 -0.98471220683E+02  0.16368894283E+03  0.12756011707E+03 0.  0.
         25    2    3    3    0    0  0.88884156862E+01 -0.27329495074E+02 -0.25469562257E+03  0.28408975059E+03  0.12252028811E+03 0.  0.
          5    1    4    4  502    0  0.10974706843E+01  0.54220490003E+02  0.64499654398E+01  0.54815673235E+02  0.47000000000E+01 0.  1.
         -5    1    4    4    0  502 -0.99858863705E+01 -0.26890994929E+02 -0.10492118612E+03  0.10887326960E+03  0.47000000000E+01 0.  1.
          5    1    5    5  503    0 -0.17741865604E+02 -0.70022646069E+02 -0.17890992236E+03  0.19299946911E+03  0.47000000000E+01 0.  1.
         -5    1    5    5    0  503  0.26630281291E+02  0.42693150996E+02 -0.75785700215E+02  0.91090281483E+02  0.47000000000E+01 0.  1.
<mgrwt>
<rscale>  0 0.27527975E+03</rscale>
<asrwt>0</asrwt>
<pdfrwt beam="1">  1        1 0.72778345E-02 0.27527975E+03</pdfrwt>
<pdfrwt beam="2">  1       -1 0.61611196E-01 0.27527975E+03</pdfrwt>
<totfact> 0.27248826E+03</totfact>
</mgrwt>
</event>
<event>
 9    1  0.2098759E-002  0.2741538E+03  0.7818608E-02  0.1098926E+00
         -1   -1    0    0    0  501 -0.00000000000E+00  0.00000000000E+00  0.91057287362E+02  0.91057287362E+02  0.00000000000E+00 0. -1.
          1   -1    0    0  501    0  0.00000000000E+00 -0.00000000000E+00 -0.20635438903E+03  0.20635438903E+03  0.00000000000E+00 0. -1.
         36    2    1    2    0    0  0.00000000000E+00  0.00000000000E+00 -0.11529710166E+03  0.29741167639E+03  0.27415375905E+03 0.  0.
         25    2    3    3    0    0 -0.43778929767E+02 -0.24559840467E+02 -0.94402768586E+02  0.16392136084E+03  0.12425195921E+03 0.  0.
         25    2    3    3    0    0  0.43778929767E+02  0.24559840467E+02 -0.20894333078E+02  0.13349031555E+03  0.12191517844E+03 0.  0.
          5    1    4    4  502    0 -0.18163339481E+02  0.10919550536E+02  0.27082950372E+02  0.34709072097E+02  0.47000000000E+01 0. -1.
         -5    1    4    4    0  502 -0.25615590286E+02 -0.35479391003E+02 -0.12148571896E+03  0.12921228874E+03  0.47000000000E+01 0. -1.
          5    1    5    5  503    0  0.75517303540E+02 -0.16139366334E+02 -0.25503188859E+02  0.81460695563E+02  0.47000000000E+01 0. -1.
         -5    1    5    5    0  503 -0.31738373773E+02  0.40699206800E+02  0.46088557809E+01  0.52029619983E+02  0.47000000000E+01 0. -1.
<mgrwt>
<rscale>  0 0.27415376E+03</rscale>
<asrwt>0</asrwt>
<pdfrwt beam="1">  1        1 0.31746829E-01 0.27415376E+03</pdfrwt>
<pdfrwt beam="2">  1       -1 0.14008814E-01 0.27415376E+03</pdfrwt>
<totfact> 0.50166882E+03</totfact>
</mgrwt>
</event>
<event>
 9    1  0.2098759E-002  0.2730582E+03  0.7818608E-02  0.1099542E+00
         -2   -1    0    0    0  501 -0.00000000000E+00  0.00000000000E+00  0.49594869406E+02  0.49594869406E+02  0.00000000000E+00 0. -1.
          2   -1    0    0  501    0  0.00000000000E+00 -0.00000000000E+00 -0.37584918310E+03  0.37584918310E+03  0.00000000000E+00 0. -1.
         36    2    1    2    0    0  0.00000000000E+00  0.35527136788E-14 -0.32625431369E+03  0.42544405250E+03  0.27305817074E+03 0.  0.
         25    2    3    3    0    0 -0.53183928117E+02  0.76585839307E+01 -0.19082031072E+03  0.23483817830E+03  0.12589437989E+03 0.  0.
         25    2    3    3    0    0  0.53183928117E+02 -0.76585839307E+01 -0.13543400297E+03  0.19060587420E+03  0.12288631332E+03 0.  0.
          5    1    4    4  502    0 -0.72317084235E+02  0.18574206367E+02 -0.19762306877E+03  0.21130955758E+03  0.47000000000E+01 0.  1.
         -5    1    4    4    0  502  0.19133156118E+02 -0.10915622436E+02  0.68027580461E+01  0.23528620726E+02  0.47000000000E+01 0.  1.
          5    1    5    5  503    0  0.54706437193E+02 -0.56328879831E+02 -0.11066071253E+03  0.13577046907E+03  0.47000000000E+01 0.  1.
         -5    1    5    5    0  503 -0.15225090761E+01  0.48670295900E+02 -0.24773290440E+02  0.54835405133E+02  0.47000000000E+01 0.  1.
<mgrwt>
<rscale>  0 0.27305817E+03</rscale>
<asrwt>0</asrwt>
<pdfrwt beam="1">  1        2 0.57822953E-01 0.27305817E+03</pdfrwt>
<pdfrwt beam="2">  1       -2 0.76299797E-02 0.27305817E+03</pdfrwt>
<totfact> 0.86426883E+03</totfact>
</mgrwt>
</event>
<event>
 9    1  0.2098759E-002  0.2739083E+03  0.7818608E-02  0.1099063E+00
          4   -1    0    0  501    0  0.00000000000E+00  0.00000000000E+00  0.72217605431E+02  0.72217605431E+02  0.00000000000E+00 0.  1.
         -4   -1    0    0    0  501 -0.00000000000E+00 -0.00000000000E+00 -0.25972121162E+03  0.25972121162E+03  0.00000000000E+00 0.  1.
         36    2    1    2    0    0  0.35527136788E-14  0.71054273576E-14 -0.18750360619E+03  0.33193881705E+03  0.27390833491E+03 0.  0.
         25    2    3    3    0    0  0.14042610646E+02  0.43704464030E+02 -0.70467722111E+02  0.15129000845E+03  0.12576045367E+03 0.  0.
         25    2    3    3    0    0 -0.14042610646E+02 -0.43704464030E+02 -0.11703588408E+03  0.18064880860E+03  0.12972786438E+03 0.  0.
          5    1    4    4  502    0 -0.19808470400E+02  0.77689905515E+02 -0.22764313144E+02  0.83476948144E+02  0.47000000000E+01 0.  1.
         -5    1    4    4    0  502  0.33851081045E+02 -0.33985441485E+02 -0.47703408966E+02  0.67813060305E+02  0.47000000000E+01 0.  1.
          5    1    5    5  503    0 -0.50844234976E+01  0.46405085976E+02 -0.41213316096E+02  0.62449265731E+02  0.47000000000E+01 0. -1.
         -5    1    5    5    0  503 -0.89581871482E+01 -0.90109550006E+02 -0.75822567983E+02  0.11819954287E+03  0.47000000000E+01 0. -1.
<mgrwt>
<rscale>  0 0.27390833E+03</rscale>
<asrwt>0</asrwt>
<pdfrwt beam="1">  1        4 0.11110401E-01 0.27390833E+03</pdfrwt>
<pdfrwt beam="2">  1       -4 0.39957109E-01 0.27390833E+03</pdfrwt>
<totfact> 0.72444052E+02</totfact>
</mgrwt>
</event>
<event>
 9    1  0.2098759E-002  0.2762061E+03  0.7818608E-02  0.1097779E+00
          2   -1    0    0  501    0  0.00000000000E+00  0.00000000000E+00  0.14963942331E+03  0.14963942331E+03  0.00000000000E+00 0. -1.
         -2   -1    0    0    0  501 -0.00000000000E+00 -0.00000000000E+00 -0.12745610410E+03  0.12745610410E+03  0.00000000000E+00 0. -1.
         36    2    1    2    0    0  0.35527136788E-14 -0.35527136788E-14  0.22183319218E+02  0.27709552741E+03  0.27620613979E+03 0.  0.
         25    2    3    3    0    0 -0.44220069730E+01 -0.30887998017E+01 -0.51015233265E+02  0.13407674749E+03  0.12387463568E+03 0.  0.
         25    2    3    3    0    0  0.44220069730E+01  0.30887998017E+01  0.73198552483E+02  0.14301877992E+03  0.12274872094E+03 0.  0.
          5    1    4    4  502    0  0.26126277909E+02 -0.32222195163E+02 -0.74604828432E+02  0.85491652715E+02  0.47000000000E+01 0. -1.
         -5    1    4    4    0  502 -0.30548284882E+02  0.29133395362E+02  0.23589595168E+02  0.48585094779E+02  0.47000000000E+01 0. -1.
          5    1    5    5  503    0 -0.43517403306E+02 -0.18490911161E+02 -0.59477433846E+01  0.47886781447E+02  0.47000000000E+01 0. -1.
         -5    1    5    5    0  503  0.47939410279E+02  0.21579710963E+02  0.79146295868E+02  0.95131998469E+02  0.47000000000E+01 0. -1.
<mgrwt>
<rscale>  0 0.27620614E+03</rscale>
<asrwt>0</asrwt>
<pdfrwt beam="1">  1        2 0.23021450E-01 0.27620614E+03</pdfrwt>
<pdfrwt beam="2">  1       -2 0.19608631E-01 0.27620614E+03</pdfrwt>
<totfact> 0.51031654E+03</totfact>
</mgrwt>
</event>
<event>
 9    1  0.2098759E-002  0.2749176E+03  0.7818608E-02  0.1098498E+00
         -1   -1    0    0    0  501 -0.00000000000E+00  0.00000000000E+00  0.79246786654E+02  0.79246786654E+02  0.00000000000E+00 0. -1.
          1   -1    0    0  501    0  0.00000000000E+00 -0.00000000000E+00 -0.23843130730E+03  0.23843130730E+03  0.00000000000E+00 0. -1.
         36    2    1    2    0    0  0.00000000000E+00  0.14210854715E-13 -0.15918452065E+03  0.31767809396E+03  0.27491755085E+03 0.  0.
         25    2    3    3    0    0 -0.10420800580E+02  0.45901999669E+02 -0.34795366363E+02  0.13583668092E+03  0.12257772923E+03 0.  0.
         25    2    3    3    0    0  0.10420800580E+02 -0.45901999669E+02 -0.12438915428E+03  0.18184141304E+03  0.12400827043E+03 0.  0.
          5    1    4    4  502    0  0.13220225098E+02 -0.23442193490E+02 -0.53504706739E+02  0.60076238485E+02  0.47000000000E+01 0.  1.
         -5    1    4    4    0  502 -0.23641025678E+02  0.69344193159E+02  0.18709340376E+02  0.75760442431E+02  0.47000000000E+01 0.  1.
          5    1    5    5  503    0 -0.40806138705E+02  0.19425114340E+02 -0.66436733954E+02  0.80488543543E+02  0.47000000000E+01 0.  1.
         -5    1    5    5    0  503  0.51226939285E+02 -0.65327114009E+02 -0.57952420329E+02  0.10135286950E+03  0.47000000000E+01 0.  1.
<mgrwt>
<rscale>  0 0.27491755E+03</rscale>
<asrwt>0</asrwt>
<pdfrwt beam="1">  1        1 0.36681740E-01 0.27491755E+03</pdfrwt>
<pdfrwt beam="2">  1       -1 0.12191813E-01 0.27491755E+03</pdfrwt>
<totfact> 0.52040969E+03</totfact>
</mgrwt>
</event>
<event>
 9    1  0.2098759E-002  0.2734320E+03  0.7818608E-02  0.1099331E+00
         -2   -1    0    0    0  501 -0.00000000000E+00  0.00000000000E+00  0.16991812185E+02  0.16991812185E+02  0.00000000000E+00 0.  1.
          2   -1    0    0  501    0  0.00000000000E+00 -0.00000000000E+00 -0.11000159574E+04  0.11000159574E+04  0.00000000000E+00 0.  1.
         36    2    1    2    0    0 -0.71054273576E-14  0.00000000000E+00 -0.10830241452E+04  0.11170077696E+04  0.27343199922E+03 0.  0.
         25    2    3    3    0    0 -0.51675640058E+02  0.26106616840E+02 -0.48205815398E+03  0.50167271703E+03  0.12626766796E+03 0.  0.
         25    2    3    3    0    0  0.51675640058E+02 -0.26106616840E+02 -0.60096599124E+03  0.61533505256E+03  0.11884938816E+03 0.  0.
          5    1    4    4  502    0 -0.16068307391E+02  0.64938791286E+02 -0.13643956434E+03  0.15202987152E+03  0.47000000000E+01 0. -1.
         -5    1    4    4    0  502 -0.35607332667E+02 -0.38832174447E+02 -0.34561858964E+03  0.34964284551E+03  0.47000000000E+01 0. -1.
          5    1    5    5  503    0 -0.25960691584E+02 -0.70017088025E+01 -0.36752407452E+03  0.36853631678E+03  0.47000000000E+01 0.  1.
         -5    1    5    5    0  503  0.77636331642E+02 -0.19104908037E+02 -0.23344191671E+03  0.24679873577E+03  0.47000000000E+01 0.  1.
<mgrwt>
<rscale>  0 0.27343200E+03</rscale>
<asrwt>0</asrwt>
<pdfrwt beam="1">  1        2 0.16923321E+00 0.27343200E+03</pdfrwt>
<pdfrwt beam="2">  1       -2 0.26141252E-02 0.27343200E+03</pdfrwt>
<totfact> 0.11855540E+04</totfact>
</mgrwt>
</event>
<event>
 9    1  0.2098759E-002  0.2754890E+03  0.7818608E-02  0.1098179E+00
          2   -1    0    0  501    0  0.00000000000E+00  0.00000000000E+00  0.12424073070E+04  0.12424073070E+04  0.00000000000E+00 0.  1.
         -2   -1    0    0    0  501 -0.00000000000E+00 -0.00000000000E+00 -0.15271605354E+02  0.15271605354E+02  0.00000000000E+00 0.  1.
         36    2    1    2    0    0  0.00000000000E+00 -0.88817841970E-15  0.12271357016E+04  0.12576789123E+04  0.27548904937E+03 0.  0.
         25    2    3    3    0    0 -0.53498735172E+01 -0.38606897824E+00  0.85058690113E+03  0.86006548122E+03  0.12722336823E+03 0.  0.
         25    2    3    3    0    0  0.53498735172E+01  0.38606897824E+00  0.37654880051E+03  0.39761343112E+03  0.12758789616E+03 0.  0.
          5    1    4    4  502    0 -0.35639936064E+02 -0.46259628674E+01  0.79961394204E+03  0.80043497605E+03  0.47000000000E+01 0. -1.
         -5    1    4    4    0  502  0.30290062547E+02  0.42398938891E+01  0.50972959087E+02  0.59630505175E+02  0.47000000000E+01 0. -1.
          5    1    5    5  503    0  0.15241919067E+02  0.31522269443E+02  0.22185621245E+02  0.41716439898E+02  0.47000000000E+01 0.  1.
         -5    1    5    5    0  503 -0.98920455498E+01 -0.31136200465E+02  0.35436317926E+03  0.35589699122E+03  0.47000000000E+01 0.  1.
<mgrwt>
<rscale>  0 0.27548905E+03</rscale>
<asrwt>0</asrwt>
<pdfrwt beam="1">  1        2 0.19113951E+00 0.27548905E+03</pdfrwt>
<pdfrwt beam="2">  1       -2 0.23494787E-02 0.27548905E+03</pdfrwt>
<totfact> 0.11505807E+04</totfact>
</mgrwt>
</event>
<event>
 9    1  0.2098759E-002  0.2757640E+03  0.7818608E-02  0.1098025E+00
          2   -1    0    0  501    0  0.00000000000E+00  0.00000000000E+00  0.17955737114E+02  0.17955737114E+02  0.00000000000E+00 0.  1.
         -2   -1    0    0    0  501 -0.00000000000E+00 -0.00000000000E+00 -0.10587950528E+04  0.10587950528E+04  0.00000000000E+00 0.  1.
         36    2    1    2    0    0 -0.71054273576E-14  0.00000000000E+00 -0.10408393157E+04  0.10767507899E+04  0.27576399784E+03 0.  0.
         25    2    3    3    0    0  0.81812732246E+01 -0.32791317190E+02 -0.46261153762E+03  0.47972172066E+03  0.12239808339E+03 0.  0.
         25    2    3    3    0    0 -0.81812732246E+01  0.32791317190E+02 -0.57822777804E+03  0.59702906923E+03  0.14475545756E+03 0.  0.
          5    1    4    4  502    0 -0.28242361428E+02 -0.68535259647E+02 -0.30837448156E+03  0.31719335376E+03  0.47000000000E+01 0. -1.
         -5    1    4    4    0  502  0.36423634652E+02  0.35743942457E+02 -0.15423705606E+03  0.16252836690E+03  0.47000000000E+01 0. -1.
          5    1    5    5  503    0  0.48527717988E+02 -0.34913712674E+02 -0.21718276641E+03  0.22530945557E+03  0.47000000000E+01 0. -1.
         -5    1    5    5    0  503 -0.56708991213E+02  0.67705029865E+02 -0.36104501163E+03  0.37171961366E+03  0.47000000000E+01 0. -1.
<mgrwt>
<rscale>  0 0.27576400E+03</rscale>
<asrwt>0</asrwt>
<pdfrwt beam="1">  1        2 0.27624216E-02 0.27576400E+03</pdfrwt>
<pdfrwt beam="2">  1       -2 0.16289152E+00 0.27576400E+03</pdfrwt>
<totfact> 0.89581059E+02</totfact>
</mgrwt>
</event>
<event>
 9    1  0.2098759E-002  0.2748885E+03  0.7818608E-02  0.1098514E+00
         -1   -1    0    0    0  501 -0.00000000000E+00  0.00000000000E+00  0.77184658898E+03  0.77184658898E+03  0.00000000000E+00 0.  1.
          1   -1    0    0  501    0  0.00000000000E+00 -0.00000000000E+00 -0.24474971985E+02  0.24474971985E+02  0.00000000000E+00 0.  1.
         36    2    1    2    0    0  0.00000000000E+00  0.00000000000E+00  0.74737161700E+03  0.79632156097E+03  0.27488851298E+03 0.  0.
         25    2    3    3    0    0  0.55219801559E+02 -0.39740783446E+01  0.46998189620E+03  0.48900950228E+03  0.12321643876E+03 0.  0.
         25    2    3    3    0    0 -0.55219801559E+02  0.39740783446E+01  0.27738972079E+03  0.30731205868E+03  0.12012753401E+03 0.  0.
          5    1    4    4  502    0  0.80273939377E+02  0.35047140568E+02  0.28149752974E+03  0.29484768382E+03  0.47000000000E+01 0. -1.
         -5    1    4    4    0  502 -0.25054137818E+02 -0.39021218912E+02  0.18848436646E+03  0.19416181846E+03  0.47000000000E+01 0. -1.
          5    1    5    5  503    0 -0.86915253973E+02  0.36107621050E+00  0.25093743868E+03  0.26560512020E+03  0.47000000000E+01 0.  1.
         -5    1    5    5    0  503  0.31695452414E+02  0.36130021341E+01  0.26452282118E+02  0.41706938480E+02  0.47000000000E+01 0.  1.
<mgrwt>
<rscale>  0 0.27488851E+03</rscale>
<asrwt>0</asrwt>
<pdfrwt beam="1">  1        1 0.37653809E-02 0.27488851E+03</pdfrwt>
<pdfrwt beam="2">  1       -1 0.11874561E+00 0.27488851E+03</pdfrwt>
<totfact> 0.16774752E+03</totfact>
</mgrwt>
</event>
<event>
 9    1  0.2098759E-002  0.2748019E+03  0.7818608E-02  0.1098562E+00
         -2   -1    0    0    0  501 -0.00000000000E+00  0.00000000000E+00  0.68204384714E+02  0.68204384714E+02  0.00000000000E+00 0.  1.
          2   -1    0    0  501    0  0.00000000000E+00 -0.00000000000E+00 -0.27680066155E+03  0.27680066155E+03  0.00000000000E+00 0.  1.
         36    2    1    2    0    0  0.00000000000E+00 -0.35527136788E-14 -0.20859627683E+03  0.34500504626E+03  0.27480188361E+03 0.  0.
         25    2    3    3    0    0  0.60374081099E+02 -0.11427707132E+02 -0.32692685568E+02  0.12533401795E+03  0.10423138782E+03 0.  0.
         25    2    3    3    0    0 -0.60374081099E+02  0.11427707132E+02 -0.17590359126E+03  0.21967102831E+03  0.11635147227E+03 0.  0.
          5    1    4    4  502    0  0.76867043910E+02  0.20165841031E+02 -0.46518570162E+01  0.79742920424E+02  0.47000000000E+01 0.  1.
         -5    1    4    4    0  502 -0.16492962811E+02 -0.31593548163E+02 -0.28040828552E+02  0.45591097527E+02  0.47000000000E+01 0.  1.
          5    1    5    5  503    0 -0.41495329449E+02  0.12366337945E+02 -0.87494720708E+00  0.43561958322E+02  0.47000000000E+01 0.  1.
         -5    1    5    5    0  503 -0.18878751650E+02 -0.93863081329E+00 -0.17502864406E+03  0.17610906999E+03  0.47000000000E+01 0.  1.
<mgrwt>
<rscale>  0 0.27480188E+03</rscale>
<asrwt>0</asrwt>
<pdfrwt beam="1">  1        2 0.42584716E-01 0.27480188E+03</pdfrwt>
<pdfrwt beam="2">  1       -2 0.10492983E-01 0.27480188E+03</pdfrwt>
<totfact> 0.72754173E+03</totfact>
</mgrwt>
</event>
<event>
 9    1  0.2098759E-002  0.2737248E+03  0.7818608E-02  0.1099167E+00
         -2   -1    0    0    0  501 -0.00000000000E+00  0.00000000000E+00  0.21139214449E+03  0.21139214449E+03  0.00000000000E+00 0.  1.
          2   -1    0    0  501    0  0.00000000000E+00 -0.00000000000E+00 -0.88609322034E+02  0.88609322034E+02  0.00000000000E+00 0.  1.
         36    2    1    2    0    0  0.71054273576E-14 -0.35527136788E-14  0.12278282245E+03  0.30000146652E+03  0.27372478592E+03 0.  0.
         25    2    3    3    0    0  0.23561527096E+02  0.27614142932E+02  0.10788563826E+03  0.16725583429E+03  0.12254597796E+03 0.  0.
         25    2    3    3    0    0 -0.23561527096E+02 -0.27614142932E+02  0.14897184196E+02  0.13274563223E+03  0.12681399895E+03 0.  0.
          5    1    4    4  502    0  0.61107428521E+00  0.74251342814E+01 -0.27243896251E+02  0.28632602288E+02  0.47000000000E+01 0.  1.
         -5    1    4    4    0  502  0.22950452811E+02  0.20189008651E+02  0.13512953451E+03  0.13862323200E+03  0.47000000000E+01 0.  1.
          5    1    5    5  503    0  0.49783836614E+02 -0.27556611942E+02  0.15810759350E+02  0.59244133558E+02  0.47000000000E+01 0. -1.
         -5    1    5    5    0  503 -0.73345363711E+02 -0.57530989783E-01 -0.91357515403E+00  0.73501498673E+02  0.47000000000E+01 0. -1.
<mgrwt>
<rscale>  0 0.27372479E+03</rscale>
<asrwt>0</asrwt>
<pdfrwt beam="1">  1        2 0.13632203E-01 0.27372479E+03</pdfrwt>
<pdfrwt beam="2">  1       -2 0.32521868E-01 0.27372479E+03</pdfrwt>
<totfact> 0.38319912E+03</totfact>
</mgrwt>
</event>
<event>
 9    1  0.2098759E-002  0.2750493E+03  0.7818608E-02  0.1098424E+00
         -2   -1    0    0    0  501 -0.00000000000E+00  0.00000000000E+00  0.15395982205E+03  0.15395982205E+03  0.00000000000E+00 0. -1.
          2   -1    0    0  501    0  0.00000000000E+00 -0.00000000000E+00 -0.12284395016E+03  0.12284395016E+03  0.00000000000E+00 0. -1.
         36    2    1    2    0    0  0.00000000000E+00  0.00000000000E+00  0.31115871893E+02  0.27680377221E+03  0.27504932435E+03 0.  0.
         25    2    3    3    0    0 -0.60593340736E+01 -0.45257571401E+02  0.46599330774E+02  0.14141633238E+03  0.12546759796E+03 0.  0.
         25    2    3    3    0    0  0.60593340736E+01  0.45257571401E+02 -0.15483458881E+02  0.13538743983E+03  0.12651109859E+03 0.  0.
          5    1    4    4  502    0  0.10409508724E+02 -0.81966748678E+02  0.43314944276E+01  0.82871934964E+02  0.47000000000E+01 0.  1.
         -5    1    4    4    0  502 -0.16468842798E+02  0.36709177277E+02  0.42267836347E+02  0.58544397417E+02  0.47000000000E+01 0.  1.
          5    1    5    5  503    0  0.18171149142E+02  0.56957233546E+02 -0.61658906217E+02  0.86012951526E+02  0.47000000000E+01 0.  1.
         -5    1    5    5    0  503 -0.12111815068E+02 -0.11699662145E+02  0.46175447336E+02  0.49374488304E+02  0.47000000000E+01 0.  1.
<mgrwt>
<rscale>  0 0.27504932E+03</rscale>
<asrwt>0</asrwt>
<pdfrwt beam="1">  1        2 0.18899069E-01 0.27504932E+03</pdfrwt>
<pdfrwt beam="2">  1       -2 0.23686126E-01 0.27504932E+03</pdfrwt>
<totfact> 0.46096069E+03</totfact>
</mgrwt>
</event>
<event>
 9    1  0.2098759E-002  0.2887546E+03  0.7818608E-02  0.1091001E+00
          2   -1    0    0  501    0  0.00000000000E+00  0.00000000000E+00  0.65785444153E+03  0.65785444153E+03  0.00000000000E+00 0.  1.
         -2   -1    0    0    0  501 -0.00000000000E+00 -0.00000000000E+00 -0.31686044953E+02  0.31686044953E+02  0.00000000000E+00 0.  1.
         36    2    1    2    0    0  0.00000000000E+00  0.35527136788E-14  0.62616839658E+03  0.68954048648E+03  0.28875460451E+03 0.  0.
         25    2    3    3    0    0 -0.63921301372E+02  0.16416184074E+02  0.24139716223E+03  0.27967898605E+03  0.12486921733E+03 0.  0.
         25    2    3    3    0    0  0.63921301372E+02 -0.16416184074E+02  0.38477123435E+03  0.40986150044E+03  0.12482837373E+03 0.  0.
          5    1    4    4  502    0 -0.97880082999E+02 -0.70104943094E+01  0.15023188435E+03  0.17950311071E+03  0.47000000000E+01 0.  1.
         -5    1    4    4    0  502  0.33958781627E+02  0.23426678383E+02  0.91165277874E+02  0.10017587534E+03  0.47000000000E+01 0.  1.
          5    1    5    5  503    0  0.41149546109E+02  0.53419938050E+02  0.18462577704E+03  0.19661063672E+03  0.47000000000E+01 0.  1.
         -5    1    5    5    0  503  0.22771755263E+02 -0.69836122124E+02  0.20014545732E+03  0.21325086372E+03  0.47000000000E+01 0.  1.
<mgrwt>
<rscale>  0 0.28875460E+03</rscale>
<asrwt>0</asrwt>
<pdfrwt beam="1">  1        2 0.10120837E+00 0.28875460E+03</pdfrwt>
<pdfrwt beam="2">  1       -2 0.48747766E-02 0.28875460E+03</pdfrwt>
<totfact> 0.91871591E+03</totfact>
</mgrwt>
</event>
<event>
 9    1  0.2098759E-002  0.2746880E+03  0.7818608E-02  0.1098626E+00
         -2   -1    0    0    0  501 -0.00000000000E+00  0.00000000000E+00  0.11640806457E+02  0.11640806457E+02  0.00000000000E+00 0. -1.
          2   -1    0    0  501    0  0.00000000000E+00 -0.00000000000E+00 -0.16204527166E+04  0.16204527166E+04  0.00000000000E+00 0. -1.
         36    2    1    2    0    0  0.00000000000E+00  0.00000000000E+00 -0.16088119101E+04  0.16320935230E+04  0.27468801537E+03 0.  0.
         25    2    3    3    0    0 -0.34521767348E+02  0.39319276772E+02 -0.73695384544E+03  0.74985753671E+03  0.12824818553E+03 0.  0.
         25    2    3    3    0    0  0.34521767348E+02 -0.39319276772E+02 -0.87185806466E+03  0.88223598632E+03  0.12436274638E+03 0.  0.
          5    1    4    4  502    0  0.15378552941E+02  0.49986322551E+02 -0.61938025354E+03  0.62160205984E+03  0.47000000000E+01 0.  1.
         -5    1    4    4    0  502 -0.49900320289E+02 -0.10667045779E+02 -0.11757359191E+03  0.12825547686E+03  0.47000000000E+01 0.  1.
          5    1    5    5  503    0 -0.27774489179E+02 -0.61330171973E+02 -0.49849906345E+03  0.50304693470E+03  0.47000000000E+01 0.  1.
         -5    1    5    5    0  503  0.62296256526E+02  0.22010895201E+02 -0.37335900121E+03  0.37918905162E+03  0.47000000000E+01 0.  1.
<mgrwt>
<rscale>  0 0.27468802E+03</rscale>
<asrwt>0</asrwt>
<pdfrwt beam="1">  1        2 0.24930044E+00 0.27468802E+03</pdfrwt>
<pdfrwt beam="2">  1       -2 0.17908931E-02 0.27468802E+03</pdfrwt>
<totfact> 0.10704695E+04</totfact>
</mgrwt>
</event>
<event>
 9    1  0.2098759E-002  0.2748980E+03  0.7818608E-02  0.1098509E+00
          1   -1    0    0  501    0  0.00000000000E+00  0.00000000000E+00  0.93101016900E+03  0.93101016900E+03  0.00000000000E+00 0. -1.
         -1   -1    0    0    0  501 -0.00000000000E+00 -0.00000000000E+00 -0.20292177408E+02  0.20292177408E+02  0.00000000000E+00 0. -1.
         36    2    1    2    0    0 -0.71054273576E-14 -0.14210854715E-13  0.91071799159E+03  0.95130234641E+03  0.27489797030E+03 0.  0.
         25    2    3    3    0    0  0.25259567889E+02  0.58283599184E+02  0.52861807591E+03  0.54519275712E+03  0.11731601992E+03 0.  0.
         25    2    3    3    0    0 -0.25259567889E+02 -0.58283599184E+02  0.38209991568E+03  0.40610958929E+03  0.12202306851E+03 0.  0.
          5    1    4    4  502    0  0.33907732737E+02  0.60397147675E+02  0.13831687506E+03  0.15476174499E+03  0.47000000000E+01 0.  1.
         -5    1    4    4    0  502 -0.86481648480E+01 -0.21135484914E+01  0.39030120086E+03  0.39043101213E+03  0.47000000000E+01 0.  1.
          5    1    5    5  503    0 -0.71324336202E+02 -0.55080612994E+02  0.22936947370E+03  0.24648221098E+03  0.47000000000E+01 0. -1.
         -5    1    5    5    0  503  0.46064768313E+02 -0.32029861899E+01  0.15273044198E+03  0.15962737831E+03  0.47000000000E+01 0. -1.
<mgrwt>
<rscale>  0 0.27489797E+03</rscale>
<asrwt>0</asrwt>
<pdfrwt beam="1">  1        1 0.14323230E+00 0.27489797E+03</pdfrwt>
<pdfrwt beam="2">  1       -1 0.31218742E-02 0.27489797E+03</pdfrwt>
<totfact> 0.64142639E+03</totfact>
</mgrwt>
</event>
<event>
 9    1  0.2098759E-002  0.2728591E+03  0.7818608E-02  0.1099654E+00
         -2   -1    0    0    0  501 -0.00000000000E+00  0.00000000000E+00  0.34429647189E+03  0.34429647189E+03  0.00000000000E+00 0. -1.
          2   -1    0    0  501    0  0.00000000000E+00 -0.00000000000E+00 -0.54061034287E+02  0.54061034287E+02  0.00000000000E+00 0. -1.
         36    2    1    2    0    0  0.35527136788E-14 -0.14210854715E-13  0.29023543760E+03  0.39835750617E+03  0.27285910922E+03 0.  0.
         25    2    3    3    0    0  0.24958094974E+02 -0.40961610904E+02  0.13498953389E+03  0.19145665837E+03  0.12701463577E+03 0.  0.
         25    2    3    3    0    0 -0.24958094974E+02  0.40961610904E+02  0.15524590371E+03  0.20690084781E+03  0.12808555786E+03 0.  0.
          5    1    4    4  502    0 -0.23335273221E+01 -0.71500197067E+02  0.13188883652E+03  0.15011488510E+03  0.47000000000E+01 0.  1.
         -5    1    4    4    0  502  0.27291622296E+02  0.30538586163E+02  0.31006973694E+01  0.41341773264E+02  0.47000000000E+01 0.  1.
          5    1    5    5  503    0  0.18562048889E+02  0.74805190882E+02  0.11484510710E+03  0.13839022678E+03  0.47000000000E+01 0. -1.
         -5    1    5    5    0  503 -0.43520143863E+02 -0.33843579978E+02  0.40400796605E+02  0.68510621030E+02  0.47000000000E+01 0. -1.
<mgrwt>
<rscale>  0 0.27285911E+03</rscale>
<asrwt>0</asrwt>
<pdfrwt beam="1">  1        2 0.83170824E-02 0.27285911E+03</pdfrwt>
<pdfrwt beam="2">  1       -2 0.52968687E-01 0.27285911E+03</pdfrwt>
<totfact> 0.27554169E+03</totfact>
</mgrwt>
</event>
<event>
 9    1  0.2098759E-002  0.2756026E+03  0.7818608E-02  0.1098115E+00
         -2   -1    0    0    0  501 -0.00000000000E+00  0.00000000000E+00  0.18336462565E+02  0.18336462565E+02  0.00000000000E+00 0.  1.
          2   -1    0    0  501    0  0.00000000000E+00 -0.00000000000E+00 -0.10355977486E+04  0.10355977486E+04  0.00000000000E+00 0.  1.
         36    2    1    2    0    0  0.00000000000E+00  0.35527136788E-14 -0.10172612861E+04  0.10539342112E+04  0.27560260775E+03 0.  0.
         25    2    3    3    0    0 -0.33925535600E+02 -0.82435597143E+01 -0.68948114984E+03  0.70163447963E+03  0.12525090329E+03 0.  0.
         25    2    3    3    0    0  0.33925535600E+02  0.82435597143E+01 -0.32778013624E+03  0.35229973158E+03  0.12432371019E+03 0.  0.
          5    1    4    4  502    0 -0.25425299267E+02 -0.27394851832E+02 -0.67426462042E+03  0.67531606829E+03  0.47000000000E+01 0. -1.
         -5    1    4    4    0  502 -0.85002363328E+01  0.19151292117E+02 -0.15216529422E+02  0.26318411334E+02  0.47000000000E+01 0. -1.
          5    1    5    5  503    0  0.30277698980E+02  0.31584121308E+02 -0.32509950578E+03  0.32806413158E+03  0.47000000000E+01 0. -1.
         -5    1    5    5    0  503  0.36478366195E+01 -0.23340561594E+02 -0.26806304601E+01  0.24235599996E+02  0.47000000000E+01 0. -1.
<mgrwt>
<rscale>  0 0.27560261E+03</rscale>
<asrwt>0</asrwt>
<pdfrwt beam="1">  1        2 0.15932277E+00 0.27560261E+03</pdfrwt>
<pdfrwt beam="2">  1       -2 0.28209935E-02 0.27560261E+03</pdfrwt>
<totfact> 0.11568523E+04</totfact>
</mgrwt>
</event>
<event>
 9    1  0.2098759E-002  0.2741369E+03  0.7818608E-02  0.1098935E+00
         -3   -1    0    0    0  501 -0.00000000000E+00  0.00000000000E+00  0.14554286533E+04  0.14554286533E+04  0.00000000000E+00 0. -1.
          3   -1    0    0  501    0  0.00000000000E+00 -0.00000000000E+00 -0.12908743069E+02  0.12908743069E+02  0.00000000000E+00 0. -1.
         36    2    1    2    0    0  0.71054273576E-14  0.00000000000E+00  0.14425199102E+04  0.14683373964E+04  0.27413686028E+03 0.  0.
         25    2    3    3    0    0  0.48981450419E+02 -0.43399908891E+01  0.56856087696E+03  0.58529965560E+03  0.12998537623E+03 0.  0.
         25    2    3    3    0    0 -0.48981450419E+02  0.43399908891E+01  0.87395903326E+03  0.88303774075E+03  0.11633246225E+03 0.  0.
          5    1    4    4  502    0  0.86192294318E+02  0.25054500904E+02  0.32973541074E+03  0.34176654416E+03  0.47000000000E+01 0. -1.
         -5    1    4    4    0  502 -0.37210843899E+02 -0.29394491793E+02  0.23882546622E+03  0.24353311144E+03  0.47000000000E+01 0. -1.
          5    1    5    5  503    0 -0.92108780104E+00  0.27229316164E+02  0.48315123462E+02  0.55666194559E+02  0.47000000000E+01 0. -1.
         -5    1    5    5    0  503 -0.48060362618E+02 -0.22889325275E+02  0.82564390980E+03  0.82737154619E+03  0.47000000000E+01 0. -1.
<mgrwt>
<rscale>  0 0.27413686E+03</rscale>
<asrwt>0</asrwt>
<pdfrwt beam="1">  1        3 0.19859616E-02 0.27413686E+03</pdfrwt>
<pdfrwt beam="2">  1       -3 0.22391197E+00 0.27413686E+03</pdfrwt>
<totfact> 0.28053046E+02</totfact>
</mgrwt>
</event>
<event>
 9    1  0.2098759E-002  0.2709925E+03  0.7818608E-02  0.1100713E+00
          2   -1    0    0  501    0  0.00000000000E+00  0.00000000000E+00  0.33233859151E+02  0.33233859151E+02  0.00000000000E+00 0.  1.
         -2   -1    0    0    0  501 -0.00000000000E+00 -0.00000000000E+00 -0.55242538075E+03  0.55242538075E+03  0.00000000000E+00 0.  1.
         36    2    1    2    0    0  0.00000000000E+00  0.00000000000E+00 -0.51919152160E+03  0.58565923991E+03  0.27099245226E+03 0.  0.
         25    2    3    3    0    0 -0.22991003130E+02 -0.80805705020E+01 -0.35669836550E+03  0.37804415357E+03  0.12284045040E+03 0.  0.
         25    2    3    3    0    0  0.22991003130E+02  0.80805705020E+01 -0.16249315610E+03  0.20761508633E+03  0.12690987530E+03 0.  0.
          5    1    4    4  502    0 -0.46043211726E+02  0.26207525981E+02 -0.31388874300E+03  0.31836307064E+03  0.47000000000E+01 0. -1.
         -5    1    4    4    0  502  0.23052208596E+02 -0.34288096483E+02 -0.42809622500E+02  0.59681082933E+02  0.47000000000E+01 0. -1.
          5    1    5    5  503    0  0.43363824580E+02  0.57710928138E+02 -0.11472746748E+03  0.13562984296E+03  0.47000000000E+01 0. -1.
         -5    1    5    5    0  503 -0.20372821449E+02 -0.49630357636E+02 -0.47765688627E+02  0.71985243369E+02  0.47000000000E+01 0. -1.
<mgrwt>
<rscale>  0 0.27099245E+03</rscale>
<asrwt>0</asrwt>
<pdfrwt beam="1">  1        2 0.51129019E-02 0.27099245E+03</pdfrwt>
<pdfrwt beam="2">  1       -2 0.84988511E-01 0.27099245E+03</pdfrwt>
<totfact> 0.18949125E+03</totfact>
</mgrwt>
</event>
<event>
 9    1  0.2098759E-002  0.2750246E+03  0.7818608E-02  0.1098438E+00
         -2   -1    0    0    0  501 -0.00000000000E+00  0.00000000000E+00  0.60272783989E+02  0.60272783989E+02  0.00000000000E+00 0. -1.
          2   -1    0    0  501    0  0.00000000000E+00 -0.00000000000E+00 -0.31373410088E+03  0.31373410088E+03  0.00000000000E+00 0. -1.
         36    2    1    2    0    0 -0.71054273576E-14  0.00000000000E+00 -0.25346131689E+03  0.37400688487E+03  0.27502456394E+03 0.  0.
         25    2    3    3    0    0  0.39211834848E+02 -0.52131809097E+02 -0.11914963499E+03  0.17832317015E+03  0.11553018646E+03 0.  0.
         25    2    3    3    0    0 -0.39211834848E+02  0.52131809097E+02 -0.13431168190E+03  0.19568371472E+03  0.12648001738E+03 0.  0.
          5    1    4    4  502    0  0.10296106275E+02 -0.43092010784E+02 -0.13615868143E+03  0.14326272274E+03  0.47000000000E+01 0. -1.
         -5    1    4    4    0  502  0.28915728573E+02 -0.90397983133E+01  0.17009046437E+02  0.35060447418E+02  0.47000000000E+01 0. -1.
          5    1    5    5  503    0 -0.15319665174E+02  0.34485689612E+02  0.16826165657E+02  0.41583227145E+02  0.47000000000E+01 0.  1.
         -5    1    5    5    0  503 -0.23892169675E+02  0.17646119485E+02 -0.15113784756E+03  0.15410048757E+03  0.47000000000E+01 0.  1.
<mgrwt>
<rscale>  0 0.27502456E+03</rscale>
<asrwt>0</asrwt>
<pdfrwt beam="1">  1        2 0.48266784E-01 0.27502456E+03</pdfrwt>
<pdfrwt beam="2">  1       -2 0.92727361E-02 0.27502456E+03</pdfrwt>
<totfact> 0.77377346E+03</totfact>
</mgrwt>
</event>
<event>
 9    1  0.2098759E-002  0.2691136E+03  0.7818608E-02  0.1101788E+00
         -2   -1    0    0    0  501 -0.00000000000E+00  0.00000000000E+00  0.20024933274E+02  0.20024933274E+02  0.00000000000E+00 0. -1.
          2   -1    0    0  501    0  0.00000000000E+00 -0.00000000000E+00 -0.90414972656E+03  0.90414972656E+03  0.00000000000E+00 0. -1.
         36    2    1    2    0    0  0.00000000000E+00  0.35527136788E-14 -0.88412479328E+03  0.92417465983E+03  0.26911364101E+03 0.  0.
         25    2    3    3    0    0 -0.18235618445E+02 -0.14003188252E+02 -0.58933289265E+03  0.60253031904E+03  0.12329192976E+03 0.  0.
         25    2    3    3    0    0  0.18235618445E+02  0.14003188252E+02 -0.29479190064E+03  0.32164434079E+03  0.12658669054E+03 0.  0.
          5    1    4    4  502    0 -0.44302419007E+02  0.43125300596E+02 -0.26711963306E+03  0.27422159698E+03  0.47000000000E+01 0. -1.
         -5    1    4    4    0  502  0.26066800562E+02 -0.57128488848E+02 -0.32221325959E+03  0.32830872206E+03  0.47000000000E+01 0. -1.
          5    1    5    5  503    0 -0.39662870386E+02 -0.21211301700E+02 -0.49179993039E+02  0.66811857648E+02  0.47000000000E+01 0. -1.
         -5    1    5    5    0  503  0.57898488832E+02  0.35214489953E+02 -0.24561190760E+03  0.25483248314E+03  0.47000000000E+01 0. -1.
<mgrwt>
<rscale>  0 0.26911364E+03</rscale>
<asrwt>0</asrwt>
<pdfrwt beam="1">  1        2 0.13909995E+00 0.26911364E+03</pdfrwt>
<pdfrwt beam="2">  1       -2 0.30807591E-02 0.26911364E+03</pdfrwt>
<totfact> 0.12241047E+04</totfact>
</mgrwt>
</event>
<event>
 9    1  0.2098759E-002  0.2761452E+03  0.7818608E-02  0.1097813E+00
          1   -1    0    0  501    0  0.00000000000E+00  0.00000000000E+00  0.73738697165E+03  0.73738697165E+03  0.00000000000E+00 0.  1.
         -1   -1    0    0    0  501 -0.00000000000E+00 -0.00000000000E+00 -0.25853515338E+02  0.25853515338E+02  0.00000000000E+00 0.  1.
         36    2    1    2    0    0  0.71054273576E-14 -0.71054273576E-14  0.71153345631E+03  0.76324048699E+03  0.27614521818E+03 0.  0.
         25    2    3    3    0    0 -0.59818687251E+02  0.42228777893E+01  0.39551012741E+03  0.41919772986E+03  0.12530908902E+03 0.  0.
         25    2    3    3    0    0  0.59818687251E+02 -0.42228777893E+01  0.31602332890E+03  0.34404275713E+03  0.12205968328E+03 0.  0.
          5    1    4    4  502    0 -0.35942696789E+02 -0.53657355882E+02  0.11725928099E+03  0.13395080541E+03  0.47000000000E+01 0. -1.
         -5    1    4    4    0  502 -0.23875990462E+02  0.57880233671E+02  0.27825084642E+03  0.28524692445E+03  0.47000000000E+01 0. -1.
          5    1    5    5  503    0  0.38886197403E+01 -0.38541274322E+02  0.26571795334E+02  0.47209125146E+02  0.47000000000E+01 0.  1.
         -5    1    5    5    0  503  0.55930067510E+02  0.34318396533E+02  0.28945153357E+03  0.29683363198E+03  0.47000000000E+01 0.  1.
<mgrwt>
<rscale>  0 0.27614522E+03</rscale>
<asrwt>0</asrwt>
<pdfrwt beam="1">  1        1 0.11344413E+00 0.27614522E+03</pdfrwt>
<pdfrwt beam="2">  1       -1 0.39774645E-02 0.27614522E+03</pdfrwt>
<totfact> 0.64564773E+03</totfact>
</mgrwt>
</event>
<event>
 9    1  0.2098759E-002  0.2753181E+03  0.7818608E-02  0.1098274E+00
          2   -1    0    0  501    0  0.00000000000E+00  0.00000000000E+00  0.72266260310E+02  0.72266260310E+02  0.00000000000E+00 0.  1.
         -2   -1    0    0    0  501 -0.00000000000E+00 -0.00000000000E+00 -0.26222499787E+03  0.26222499787E+03  0.00000000000E+00 0.  1.
         36    2    1    2    0    0 -0.71054273576E-14  0.71054273576E-14 -0.18995873756E+03  0.33449125818E+03  0.27531814293E+03 0.  0.
         25    2    3    3    0    0 -0.20506368765E+02  0.35191311462E+02 -0.13887560113E+03  0.19488840030E+03  0.13052247478E+03 0.  0.
         25    2    3    3    0    0  0.20506368765E+02 -0.35191311462E+02 -0.51083136432E+02  0.13960285788E+03  0.12337151834E+03 0.  0.
          5    1    4    4  502    0 -0.56978140227E+02 -0.26170644821E+02 -0.82936743980E+02  0.10407691683E+03  0.47000000000E+01 0.  1.
         -5    1    4    4    0  502  0.36471771462E+02  0.61361956283E+02 -0.55938857148E+02  0.90811483478E+02  0.47000000000E+01 0.  1.
          5    1    5    5  503    0  0.25375985835E+02  0.38469774823E+02  0.52533427015E+01  0.46621366792E+02  0.47000000000E+01 0. -1.
         -5    1    5    5    0  503 -0.48696170703E+01 -0.73661086284E+02 -0.56336479133E+02  0.92981491083E+02  0.47000000000E+01 0. -1.
<mgrwt>
<rscale>  0 0.27531814E+03</rscale>
<asrwt>0</asrwt>
<pdfrwt beam="1">  1        2 0.11117886E-01 0.27531814E+03</pdfrwt>
<pdfrwt beam="2">  1       -2 0.40342308E-01 0.27531814E+03</pdfrwt>
<totfact> 0.32763853E+03</totfact>
</mgrwt>
</event>
<event>
 9    1  0.2098759E-002  0.2745388E+03  0.7818608E-02  0.1098710E+00
          2   -1    0    0  501    0  0.00000000000E+00  0.00000000000E+00  0.13659270126E+04  0.13659270126E+04  0.00000000000E+00 0.  1.
         -2   -1    0    0    0  501 -0.00000000000E+00 -0.00000000000E+00 -0.13794944162E+02  0.13794944162E+02  0.00000000000E+00 0.  1.
         36    2    1    2    0    0  0.00000000000E+00 -0.71054273576E-14  0.13521320684E+04  0.13797219567E+04  0.27453879046E+03 0.  0.
         25    2    3    3    0    0 -0.31306814041E+02 -0.34089219825E+02  0.40444592798E+03  0.42400758957E+03  0.11859062290E+03 0.  0.
         25    2    3    3    0    0  0.31306814041E+02  0.34089219825E+02  0.94768614041E+03  0.95571436715E+03  0.11462434003E+03 0.  0.
          5    1    4    4  502    0  0.78406558356E+01 -0.64955789165E+02  0.13674949658E+03  0.15166820776E+03  0.47000000000E+01 0.  1.
         -5    1    4    4    0  502 -0.39147469877E+02  0.30866569340E+02  0.26769643139E+03  0.27233938181E+03  0.47000000000E+01 0.  1.
          5    1    5    5  503    0  0.53731394770E+02 -0.25128155883E+02  0.50631515043E+03  0.50979957685E+03  0.47000000000E+01 0.  1.
         -5    1    5    5    0  503 -0.22424580729E+02  0.59217375708E+02  0.44137098999E+03  0.44591479030E+03  0.47000000000E+01 0.  1.
<mgrwt>
<rscale>  0 0.27453879E+03</rscale>
<asrwt>0</asrwt>
<pdfrwt beam="1">  1        2 0.21014251E+00 0.27453879E+03</pdfrwt>
<pdfrwt beam="2">  1       -2 0.21223002E-02 0.27453879E+03</pdfrwt>
<totfact> 0.11420047E+04</totfact>
</mgrwt>
</event>
<event>
 9    1  0.2098759E-002  0.2750505E+03  0.7818608E-02  0.1098423E+00
         -2   -1    0    0    0  501 -0.00000000000E+00  0.00000000000E+00  0.22922224927E+02  0.22922224927E+02  0.00000000000E+00 0.  1.
          2   -1    0    0  501    0  0.00000000000E+00 -0.00000000000E+00 -0.82510290674E+03  0.82510290674E+03  0.00000000000E+00 0.  1.
         36    2    1    2    0    0  0.00000000000E+00  0.00000000000E+00 -0.80218068181E+03  0.84802513167E+03  0.27505050021E+03 0.  0.
         25    2    3    3    0    0  0.29680254163E+02 -0.46312621100E+02 -0.37710814681E+03  0.40081803474E+03  0.12417232472E+03 0.  0.
         25    2    3    3    0    0 -0.29680254163E+02  0.46312621100E+02 -0.42507253500E+03  0.44720709692E+03  0.12759996538E+03 0.  0.
          5    1    4    4  502    0  0.56083592459E+02  0.20524929686E+02 -0.21963734114E+03  0.22766047902E+03  0.47000000000E+01 0. -1.
         -5    1    4    4    0  502 -0.26403338296E+02 -0.66837550786E+02 -0.15747080566E+03  0.17315755573E+03  0.47000000000E+01 0. -1.
          5    1    5    5  503    0  0.42885382811E+02  0.21253934092E+02 -0.26838171286E+03  0.27265677980E+03  0.47000000000E+01 0.  1.
         -5    1    5    5    0  503 -0.72565636974E+02  0.25058687008E+02 -0.15669082215E+03  0.17455031713E+03  0.47000000000E+01 0.  1.
<mgrwt>
<rscale>  0 0.27505050E+03</rscale>
<asrwt>0</asrwt>
<pdfrwt beam="1">  1        2 0.12693891E+00 0.27505050E+03</pdfrwt>
<pdfrwt beam="2">  1       -2 0.35264962E-02 0.27505050E+03</pdfrwt>
<totfact> 0.11291463E+04</totfact>
</mgrwt>
</event>
<event>
 9    1  0.2098759E-002  0.2747026E+03  0.7818608E-02  0.1098618E+00
          2   -1    0    0  501    0  0.00000000000E+00  0.00000000000E+00  0.18644146227E+03  0.18644146227E+03  0.00000000000E+00 0. -1.
         -2   -1    0    0    0  501 -0.00000000000E+00 -0.00000000000E+00 -0.10118661962E+03  0.10118661962E+03  0.00000000000E+00 0. -1.
         36    2    1    2    0    0  0.00000000000E+00 -0.14210854715E-13  0.85254842657E+02  0.28762808189E+03  0.27470261246E+03 0.  0.
         25    2    3    3    0    0  0.93279646529E+01  0.80167594934E+02  0.95794889814E+01  0.14937863263E+03  0.12533297681E+03 0.  0.
         25    2    3    3    0    0 -0.93279646529E+01 -0.80167594934E+02  0.75675353675E+02  0.13824944926E+03  0.82899317630E+02 0.  0.
          5    1    4    4  502    0 -0.13955135954E+02 -0.30677353034E+02  0.11739954437E+02  0.35996698999E+02  0.47000000000E+01 0. -1.
         -5    1    4    4    0  502  0.23283100606E+02  0.11084494797E+03 -0.21604654554E+01  0.11338193363E+03  0.47000000000E+01 0. -1.
          5    1    5    5  503    0  0.22920850992E+02 -0.17098118368E+01 -0.14517009793E+01  0.23505027174E+02  0.47000000000E+01 0.  1.
         -5    1    5    5    0  503 -0.32248815645E+02 -0.78457783097E+02  0.77127054655E+02  0.11474442208E+03  0.47000000000E+01 0.  1.
<mgrwt>
<rscale>  0 0.27470261E+03</rscale>
<asrwt>0</asrwt>
<pdfrwt beam="1">  1        2 0.28683302E-01 0.27470261E+03</pdfrwt>
<pdfrwt beam="2">  1       -2 0.15567172E-01 0.27470261E+03</pdfrwt>
<totfact> 0.58870237E+03</totfact>
</mgrwt>
</event>
<event>
 9    1  0.2098759E-002  0.2755442E+03  0.7818608E-02  0.1098148E+00
         -1   -1    0    0    0  501 -0.00000000000E+00  0.00000000000E+00  0.88175438639E+02  0.88175438639E+02  0.00000000000E+00 0.  1.
          1   -1    0    0  501    0  0.00000000000E+00 -0.00000000000E+00 -0.21526571180E+03  0.21526571180E+03  0.00000000000E+00 0.  1.
         36    2    1    2    0    0  0.00000000000E+00  0.00000000000E+00 -0.12709027316E+03  0.30344115043E+03  0.27554417839E+03 0.  0.
         25    2    3    3    0    0 -0.55179442631E+01  0.53962265754E+01 -0.75890691167E+02  0.16679736541E+03  0.14833205025E+03 0.  0.
         25    2    3    3    0    0  0.55179442631E+01 -0.53962265754E+01 -0.51199581989E+02  0.13664378502E+03  0.12645378531E+03 0.  0.
          5    1    4    4  502    0  0.30597131336E+02  0.68614035443E+00  0.36905210983E+02  0.48174057669E+02  0.47000000000E+01 0. -1.
         -5    1    4    4    0  502 -0.36115075599E+02  0.47100862210E+01 -0.11279590215E+03  0.11862330774E+03  0.47000000000E+01 0. -1.
          5    1    5    5  503    0  0.55037709803E+02 -0.17357610894E+01 -0.64584302500E+02  0.85002261713E+02  0.47000000000E+01 0. -1.
         -5    1    5    5    0  503 -0.49519765540E+02 -0.36604654861E+01  0.13384720511E+02  0.51641523311E+02  0.47000000000E+01 0. -1.
<mgrwt>
<rscale>  0 0.27554418E+03</rscale>
<asrwt>0</asrwt>
<pdfrwt beam="1">  1        1 0.33117801E-01 0.27554418E+03</pdfrwt>
<pdfrwt beam="2">  1       -1 0.13565452E-01 0.27554418E+03</pdfrwt>
<totfact> 0.50049759E+03</totfact>
</mgrwt>
</event>
<event>
 9    1  0.2098759E-002  0.2759153E+03  0.7818608E-02  0.1097941E+00
         -3   -1    0    0    0  501 -0.00000000000E+00  0.00000000000E+00  0.10603767928E+03  0.10603767928E+03  0.00000000000E+00 0.  1.
          3   -1    0    0  501    0  0.00000000000E+00 -0.00000000000E+00 -0.17948637752E+03  0.17948637752E+03  0.00000000000E+00 0.  1.
         36    2    1    2    0    0  0.00000000000E+00 -0.71054273576E-14 -0.73448698247E+02  0.28552405680E+03  0.27591534161E+03 0.  0.
         25    2    3    3    0    0 -0.11527782134E+02 -0.48730046421E+02 -0.20885418365E+02  0.14193022721E+03  0.13115060621E+03 0.  0.
         25    2    3    3    0    0  0.11527782134E+02  0.48730046421E+02 -0.52563279882E+02  0.14359382959E+03  0.12389020268E+03 0.  0.
          5    1    4    4  502    0  0.32994158688E+02 -0.29857282897E+02  0.42738794785E+02  0.61877026668E+02  0.47000000000E+01 0. -1.
         -5    1    4    4    0  502 -0.44521940822E+02 -0.18872763525E+02 -0.63624213151E+02  0.80053200540E+02  0.47000000000E+01 0. -1.
          5    1    5    5  503    0 -0.30931913372E+02  0.75381291218E+02 -0.21384744819E+02  0.84371320018E+02  0.47000000000E+01 0. -1.
         -5    1    5    5    0  503  0.42459695506E+02 -0.26651244797E+02 -0.31178535063E+02  0.59222509575E+02  0.47000000000E+01 0. -1.
<mgrwt>
<rscale>  0 0.27591534E+03</rscale>
<asrwt>0</asrwt>
<pdfrwt beam="1">  1        3 0.27613289E-01 0.27591534E+03</pdfrwt>
<pdfrwt beam="2">  1       -3 0.16313489E-01 0.27591534E+03</pdfrwt>
<totfact> 0.10225448E+03</totfact>
</mgrwt>
</event>
<event>
 9    1  0.2098759E-002  0.2742950E+03  0.7818608E-02  0.1098846E+00
          3   -1    0    0  501    0  0.00000000000E+00  0.00000000000E+00  0.13112402290E+02  0.13112402290E+02  0.00000000000E+00 0.  1.
         -3   -1    0    0    0  501 -0.00000000000E+00 -0.00000000000E+00 -0.14344767160E+04  0.14344767160E+04  0.00000000000E+00 0.  1.
         36    2    1    2    0    0 -0.35527136788E-14  0.00000000000E+00 -0.14213643137E+04  0.14475891183E+04  0.27429499285E+03 0.  0.
         25    2    3    3    0    0 -0.28948284445E+02 -0.42068402140E+02 -0.72325624820E+03  0.73615314101E+03  0.12733457043E+03 0.  0.
         25    2    3    3    0    0  0.28948284445E+02  0.42068402140E+02 -0.69810806550E+03  0.71143597727E+03  0.12719483091E+03 0.  0.
          5    1    4    4  502    0 -0.53347906860E+02 -0.11611197984E+02 -0.12351748549E+03  0.13512763709E+03  0.47000000000E+01 0. -1.
         -5    1    4    4    0  502  0.24399622415E+02 -0.30457204157E+02 -0.59973876271E+03  0.60102550392E+03  0.47000000000E+01 0. -1.
          5    1    5    5  503    0  0.71600862191E+02  0.60237084421E+01 -0.26102807064E+03  0.27077797582E+03  0.47000000000E+01 0. -1.
         -5    1    5    5    0  503 -0.42652577745E+02  0.36044693698E+02 -0.43707999486E+03  0.44065800145E+03  0.47000000000E+01 0. -1.
<mgrwt>
<rscale>  0 0.27429499E+03</rscale>
<asrwt>0</asrwt>
<pdfrwt beam="1">  1        3 0.20172927E-02 0.27429499E+03</pdfrwt>
<pdfrwt beam="2">  1       -3 0.22068873E+00 0.27429499E+03</pdfrwt>
<totfact> 0.28591666E+02</totfact>
</mgrwt>
</event>
<event>
 9    1  0.2098759E-002  0.2743271E+03  0.7818608E-02  0.1098828E+00
         -1   -1    0    0    0  501 -0.00000000000E+00  0.00000000000E+00  0.17454879949E+02  0.17454879949E+02  0.00000000000E+00 0.  1.
          1   -1    0    0  501    0  0.00000000000E+00 -0.00000000000E+00 -0.10778558135E+04  0.10778558135E+04  0.00000000000E+00 0.  1.
         36    2    1    2    0    0  0.00000000000E+00  0.71054273576E-14 -0.10604009335E+04  0.10953106934E+04  0.27432713192E+03 0.  0.
         25    2    3    3    0    0  0.20349138315E+01  0.40076434296E+02 -0.69316675298E+03  0.70525865338E+03  0.12369057878E+03 0.  0.
         25    2    3    3    0    0 -0.20349138315E+01 -0.40076434296E+02 -0.36723418057E+03  0.39005204006E+03  0.12517743054E+03 0.  0.
          5    1    4    4  502    0  0.61531819849E+02  0.28013056939E+02 -0.31363733085E+03  0.32087592854E+03  0.47000000000E+01 0. -1.
         -5    1    4    4    0  502 -0.59496906017E+02  0.12063377358E+02 -0.37952942213E+03  0.38438272485E+03  0.47000000000E+01 0. -1.
          5    1    5    5  503    0 -0.43255165983E+02  0.26908274606E+02 -0.17420058965E+03  0.18155715370E+03  0.47000000000E+01 0.  1.
         -5    1    5    5    0  503  0.41220252152E+02 -0.66984708902E+02 -0.19303359092E+03  0.20849488636E+03  0.47000000000E+01 0.  1.
<mgrwt>
<rscale>  0 0.27432713E+03</rscale>
<asrwt>0</asrwt>
<pdfrwt beam="1">  1        1 0.16582402E+00 0.27432713E+03</pdfrwt>
<pdfrwt beam="2">  1       -1 0.26853654E-02 0.27432713E+03</pdfrwt>
<totfact> 0.62189399E+03</totfact>
</mgrwt>
</event>
<event>
 9    1  0.2098759E-002  0.2748842E+03  0.7818608E-02  0.1098516E+00
         -2   -1    0    0    0  501 -0.00000000000E+00  0.00000000000E+00  0.17881022299E+02  0.17881022299E+02  0.00000000000E+00 0. -1.
          2   -1    0    0  501    0  0.00000000000E+00 -0.00000000000E+00 -0.10564456174E+04  0.10564456174E+04  0.00000000000E+00 0. -1.
         36    2    1    2    0    0 -0.71054273576E-14  0.00000000000E+00 -0.10385645951E+04  0.10743266397E+04  0.27488417664E+03 0.  0.
         25    2    3    3    0    0  0.34249019337E+02  0.12553311872E+02 -0.73203933150E+03  0.74212370691E+03  0.11634187780E+03 0.  0.
         25    2    3    3    0    0 -0.34249019337E+02 -0.12553311872E+02 -0.30652526358E+03  0.33220293276E+03  0.12276184408E+03 0.  0.
          5    1    4    4  502    0 -0.34490414685E+02 -0.23845121205E+02 -0.19945306102E+03  0.20386709411E+03  0.47000000000E+01 0. -1.
         -5    1    4    4    0  502  0.68739434022E+02  0.36398433077E+02 -0.53258627049E+03  0.53825661281E+03  0.47000000000E+01 0. -1.
          5    1    5    5  503    0 -0.51440619180E+02  0.19645191324E+02 -0.54892374150E+02  0.77893090731E+02  0.47000000000E+01 0. -1.
         -5    1    5    5    0  503  0.17191599844E+02 -0.32198503197E+02 -0.25163288943E+03  0.25430984203E+03  0.47000000000E+01 0. -1.
<mgrwt>
<rscale>  0 0.27488418E+03</rscale>
<asrwt>0</asrwt>
<pdfrwt beam="1">  1        2 0.16253012E+00 0.27488418E+03</pdfrwt>
<pdfrwt beam="2">  1       -2 0.27509260E-02 0.27488418E+03</pdfrwt>
<totfact> 0.11666717E+04</totfact>
</mgrwt>
</event>
<event>
 9    1  0.2098759E-002  0.2734392E+03  0.7818608E-02  0.1099327E+00
          2   -1    0    0  501    0  0.00000000000E+00  0.00000000000E+00  0.61094687002E+03  0.61094687002E+03  0.00000000000E+00 0.  1.
         -2   -1    0    0    0  501 -0.00000000000E+00 -0.00000000000E+00 -0.30595547417E+02  0.30595547417E+02  0.00000000000E+00 0.  1.
         36    2    1    2    0    0  0.17763568394E-14 -0.71054273576E-14  0.58035132261E+03  0.64154241744E+03  0.27343923589E+03 0.  0.
         25    2    3    3    0    0 -0.15356947029E+02 -0.47660258886E+02  0.27284109726E+03  0.30502864495E+03  0.12685769109E+03 0.  0.
         25    2    3    3    0    0  0.15356947029E+02  0.47660258886E+02  0.30751022534E+03  0.33651377248E+03  0.12716778005E+03 0.  0.
          5    1    4    4  502    0 -0.82311932308E+00  0.14688375390E+02  0.22358078300E+03  0.22411354806E+03  0.47000000000E+01 0.  1.
         -5    1    4    4    0  502 -0.14533827706E+02 -0.62348634276E+02  0.49260314260E+02  0.80915096891E+02  0.47000000000E+01 0.  1.
          5    1    5    5  503    0  0.15352869725E+02  0.83966173309E+02  0.27348416257E+03  0.28653395269E+03  0.47000000000E+01 0. -1.
         -5    1    5    5    0  503  0.40773038421E-02 -0.36305914423E+02  0.34026062772E+02  0.49979819792E+02  0.47000000000E+01 0. -1.
<mgrwt>
<rscale>  0 0.27343924E+03</rscale>
<asrwt>0</asrwt>
<pdfrwt beam="1">  1        2 0.93991818E-01 0.27343924E+03</pdfrwt>
<pdfrwt beam="2">  1       -2 0.47070077E-02 0.27343924E+03</pdfrwt>
<totfact> 0.10551861E+04</totfact>
</mgrwt>
</event>
<event>
 9    1  0.2098759E-002  0.2748813E+03  0.7818608E-02  0.1098518E+00
          1   -1    0    0  501    0  0.00000000000E+00  0.00000000000E+00  0.59981662975E+02  0.59981662975E+02  0.00000000000E+00 0. -1.
         -1   -1    0    0    0  501 -0.00000000000E+00 -0.00000000000E+00 -0.31492837238E+03  0.31492837238E+03  0.00000000000E+00 0. -1.
         36    2    1    2    0    0  0.14210854715E-13 -0.10658141036E-13 -0.25494670940E+03  0.37491003535E+03  0.27488126523E+03 0.  0.
         25    2    3    3    0    0  0.43918852804E+02 -0.30174412959E+02 -0.15502664230E+03  0.20656881160E+03  0.12569030699E+03 0.  0.
         25    2    3    3    0    0 -0.43918852804E+02  0.30174412959E+02 -0.99920067098E+02  0.16834122375E+03  0.12456077624E+03 0.  0.
          5    1    4    4  502    0 -0.75072291287E+01  0.18989690947E+02 -0.12896175477E+03  0.13065294120E+03  0.47000000000E+01 0. -1.
         -5    1    4    4    0  502  0.51426081933E+02 -0.49164103907E+02 -0.26064887534E+02  0.75915870397E+02  0.47000000000E+01 0. -1.
          5    1    5    5  503    0  0.41008060348E+01 -0.37509578326E+02  0.44244854805E+00  0.38027238094E+02  0.47000000000E+01 0. -1.
         -5    1    5    5    0  503 -0.48019658839E+02  0.67683991285E+02 -0.10036251565E+03  0.13031398566E+03  0.47000000000E+01 0. -1.
<mgrwt>
<rscale>  0 0.27488127E+03</rscale>
<asrwt>0</asrwt>
<pdfrwt beam="1">  1        1 0.92279483E-02 0.27488127E+03</pdfrwt>
<pdfrwt beam="2">  1       -1 0.48450518E-01 0.27488127E+03</pdfrwt>
<totfact> 0.31045502E+03</totfact>
</mgrwt>
</event>
<event>
 9    1  0.2098759E-002  0.2741374E+03  0.7818608E-02  0.1098935E+00
         -2   -1    0    0    0  501 -0.00000000000E+00  0.00000000000E+00  0.12409632552E+02  0.12409632552E+02  0.00000000000E+00 0.  1.
          2   -1    0    0  501    0  0.00000000000E+00 -0.00000000000E+00 -0.15139713456E+04  0.15139713456E+04  0.00000000000E+00 0.  1.
         36    2    1    2    0    0  0.17763568394E-14  0.00000000000E+00 -0.15015617131E+04  0.15263809782E+04  0.27413739689E+03 0.  0.
         25    2    3    3    0    0 -0.14671368936E+02 -0.10602542020E+02 -0.52209721021E+03  0.53609733852E+03  0.12036277039E+03 0.  0.
         25    2    3    3    0    0  0.14671368936E+02  0.10602542020E+02 -0.97946450287E+03  0.99028363966E+03  0.14485617570E+03 0.  0.
          5    1    4    4  502    0 -0.37522339059E+02  0.19040491256E+02 -0.65806007167E+02  0.78249516388E+02  0.47000000000E+01 0.  1.
         -5    1    4    4    0  502  0.22850970123E+02 -0.29643033276E+02 -0.45629120304E+03  0.45784782213E+03  0.47000000000E+01 0.  1.
          5    1    5    5  503    0 -0.10729591793E+02  0.10220855538E+01 -0.14116272048E+01  0.11842782202E+02  0.47000000000E+01 0. -1.
         -5    1    5    5    0  503  0.25400960728E+02  0.95804564662E+01 -0.97805287567E+03  0.97844085746E+03  0.47000000000E+01 0. -1.
<mgrwt>
<rscale>  0 0.27413740E+03</rscale>
<asrwt>0</asrwt>
<pdfrwt beam="1">  1        2 0.23291867E+00 0.27413740E+03</pdfrwt>
<pdfrwt beam="2">  1       -2 0.19091742E-02 0.27413740E+03</pdfrwt>
<totfact> 0.11101048E+04</totfact>
</mgrwt>
</event>
<event>
 9    1  0.2098759E-002  0.2742801E+03  0.7818608E-02  0.1098855E+00
         -3   -1    0    0    0  501 -0.00000000000E+00  0.00000000000E+00  0.14687882006E+02  0.14687882006E+02  0.00000000000E+00 0. -1.
          3   -1    0    0  501    0  0.00000000000E+00 -0.00000000000E+00 -0.12804702064E+04  0.12804702064E+04  0.00000000000E+00 0. -1.
         36    2    1    2    0    0  0.00000000000E+00 -0.17763568394E-14 -0.12657823244E+04  0.12951580884E+04  0.27428011450E+03 0.  0.
         25    2    3    3    0    0  0.32851235882E+02 -0.14036949729E+02 -0.86614942672E+03  0.87581790184E+03  0.12476348875E+03 0.  0.
         25    2    3    3    0    0 -0.32851235882E+02  0.14036949729E+02 -0.39963289764E+03  0.41934018653E+03  0.12191595263E+03 0.  0.
          5    1    4    4  502    0 -0.23188432499E+02 -0.41456835715E+02 -0.16177018796E+03  0.16866551616E+03  0.47000000000E+01 0.  1.
         -5    1    4    4    0  502  0.56039668381E+02  0.27419885986E+02 -0.70437923876E+03  0.70715238568E+03  0.47000000000E+01 0.  1.
          5    1    5    5  503    0 -0.66262822960E+02 -0.53059587853E+01 -0.34998395785E+03  0.35627205287E+03  0.47000000000E+01 0. -1.
         -5    1    5    5    0  503  0.33411587078E+02  0.19342908515E+02 -0.49648939797E+02  0.63068133664E+02  0.47000000000E+01 0. -1.
<mgrwt>
<rscale>  0 0.27428011E+03</rscale>
<asrwt>0</asrwt>
<pdfrwt beam="1">  1        3 0.19699538E+00 0.27428011E+03</pdfrwt>
<pdfrwt beam="2">  1       -3 0.22596746E-02 0.27428011E+03</pdfrwt>
<totfact> 0.33476741E+02</totfact>
</mgrwt>
</event>
<event>
 9    1  0.2098759E-002  0.2747000E+03  0.7818608E-02  0.1098619E+00
         -1   -1    0    0    0  501 -0.00000000000E+00  0.00000000000E+00  0.11978231383E+04  0.11978231383E+04  0.00000000000E+00 0.  1.
          1   -1    0    0  501    0  0.00000000000E+00 -0.00000000000E+00 -0.15749420656E+02  0.15749420656E+02  0.00000000000E+00 0.  1.
         36    2    1    2    0    0 -0.35527136788E-14  0.00000000000E+00  0.11820737176E+04  0.12135725590E+04  0.27469998527E+03 0.  0.
         25    2    3    3    0    0  0.10896833999E+02  0.34451005741E+02  0.76475549545E+03  0.77564533619E+03  0.12437486463E+03 0.  0.
         25    2    3    3    0    0 -0.10896833999E+02 -0.34451005741E+02  0.41731822220E+03  0.43792722277E+03  0.12775030753E+03 0.  0.
          5    1    4    4  502    0 -0.19832626050E+02  0.52341575928E+02  0.15548195287E+03  0.16531697219E+03  0.47000000000E+01 0. -1.
         -5    1    4    4    0  502  0.30729460049E+02 -0.17890570187E+02  0.60927354258E+03  0.61032836400E+03  0.47000000000E+01 0. -1.
          5    1    5    5  503    0 -0.67692328327E+02 -0.76764220398E+01  0.18404596232E+03  0.19630635501E+03  0.47000000000E+01 0. -1.
         -5    1    5    5    0  503  0.56795494328E+02 -0.26774583701E+02  0.23327225988E+03  0.24162086776E+03  0.47000000000E+01 0. -1.
<mgrwt>
<rscale>  0 0.27469999E+03</rscale>
<asrwt>0</asrwt>
<pdfrwt beam="1">  1        1 0.24229887E-02 0.27469999E+03</pdfrwt>
<pdfrwt beam="2">  1       -1 0.18428041E+00 0.27469999E+03</pdfrwt>
<totfact> 0.98428096E+02</totfact>
</mgrwt>
</event>
<event>
 8    1  0.2098759E-002  0.2913878E+03  0.7818608E-02  0.1089627E+00
          2   -1    0    0  501    0  0.00000000000E+00  0.00000000000E+00  0.63823826142E+02  0.63823826142E+02  0.00000000000E+00 0.  1.
         -2   -1    0    0    0  501 -0.00000000000E+00 -0.00000000000E+00 -0.33258280810E+03  0.33258280810E+03  0.00000000000E+00 0.  1.
         25    2    1    2    0    0  0.29248811531E+02  0.15337537935E+02 -0.23480935586E+03  0.26676225945E+03  0.12221266882E+03 0.  0.
         25    2    1    2    0    0 -0.29248811531E+02 -0.15337537935E+02 -0.33949626093E+02  0.12964437479E+03  0.12068286439E+03 0.  0.
          5    1    3    3  502    0 -0.22501441646E+02 -0.24970052328E+02 -0.17371423929E+03  0.17699871559E+03  0.47000000000E+01 0. -1.
         -5    1    3    3    0  502  0.51750253177E+02  0.40307590263E+02 -0.61095116577E+02  0.89763543860E+02  0.47000000000E+01 0. -1.
          5    1    4    4  503    0 -0.35481147198E+01 -0.59890080887E+02  0.10999186837E+02  0.61175836878E+02  0.47000000000E+01 0.  1.
         -5    1    4    4    0  503 -0.25700696812E+02  0.44552542951E+02 -0.44948812929E+02  0.68468537912E+02  0.47000000000E+01 0.  1.
<mgrwt>
<rscale>  0 0.29138776E+03</rscale>
<asrwt>0</asrwt>
<pdfrwt beam="1">  1        2 0.98190501E-02 0.29138776E+03</pdfrwt>
<pdfrwt beam="2">  1       -2 0.51166586E-01 0.29138776E+03</pdfrwt>
<totfact> 0.24021740E+03</totfact>
</mgrwt>
</event>
<event>
 9    1  0.2098759E-002  0.2748325E+03  0.7818608E-02  0.1098545E+00
          4   -1    0    0  501    0  0.00000000000E+00  0.00000000000E+00  0.12192350825E+03  0.12192350825E+03  0.00000000000E+00 0. -1.
         -4   -1    0    0    0  501 -0.00000000000E+00 -0.00000000000E+00 -0.15487767742E+03  0.15487767742E+03  0.00000000000E+00 0. -1.
         36    2    1    2    0    0  0.71054273576E-14 -0.71054273576E-14 -0.32954169168E+02  0.27680118567E+03  0.27483252923E+03 0.  0.
         25    2    3    3    0    0 -0.95889546050E+01  0.42653133659E+02 -0.56421832894E+02  0.14358129183E+03  0.12458300958E+03 0.  0.
         25    2    3    3    0    0  0.95889546050E+01 -0.42653133659E+02  0.23467663726E+02  0.13321989384E+03  0.12363482929E+03 0.  0.
          5    1    4    4  502    0 -0.62690758542E+02  0.16955169484E+01 -0.15122170195E+02  0.64682115114E+02  0.47000000000E+01 0.  1.
         -5    1    4    4    0  502  0.53101803937E+02  0.40957616710E+02 -0.41299662699E+02  0.78899176719E+02  0.47000000000E+01 0.  1.
          5    1    5    5  503    0 -0.42282011107E+02 -0.62325191709E+02  0.13803566897E+02  0.76712622455E+02  0.47000000000E+01 0.  1.
         -5    1    5    5    0  503  0.51870965712E+02  0.19672058051E+02  0.96640968284E+01  0.56507271385E+02  0.47000000000E+01 0.  1.
<mgrwt>
<rscale>  0 0.27483253E+03</rscale>
<asrwt>0</asrwt>
<pdfrwt beam="1">  1        4 0.18757463E-01 0.27483253E+03</pdfrwt>
<pdfrwt beam="2">  1       -4 0.23827335E-01 0.27483253E+03</pdfrwt>
<totfact> 0.77799353E+02</totfact>
</mgrwt>
</event>
<event>
 9    1  0.2098759E-002  0.2749077E+03  0.7818608E-02  0.1098503E+00
          1   -1    0    0  501    0  0.00000000000E+00  0.00000000000E+00  0.55061460425E+03  0.55061460425E+03  0.00000000000E+00 0.  1.
         -1   -1    0    0    0  501 -0.00000000000E+00 -0.00000000000E+00 -0.34313580094E+02  0.34313580094E+02  0.00000000000E+00 0.  1.
         36    2    1    2    0    0  0.00000000000E+00  0.71054273576E-14  0.51630102416E+03  0.58492818435E+03  0.27490768141E+03 0.  0.
         25    2    3    3    0    0  0.31881165570E+02  0.63474291353E+02  0.24955892806E+03  0.28752415458E+03  0.12387528613E+03 0.  0.
         25    2    3    3    0    0 -0.31881165570E+02 -0.63474291353E+02  0.26674209610E+03  0.29740402976E+03  0.11069063514E+03 0.  0.
          5    1    4    4  502    0  0.16930250783E+02  0.10058022641E+03  0.18848341554E+03  0.21436208450E+03  0.47000000000E+01 0.  1.
         -5    1    4    4    0  502  0.14950914788E+02 -0.37105935058E+02  0.61075512524E+02  0.73162070088E+02  0.47000000000E+01 0.  1.
          5    1    5    5  503    0 -0.58809484307E+02  0.15894749962E+01  0.14710893765E+03  0.15850618729E+03  0.47000000000E+01 0.  1.
         -5    1    5    5    0  503  0.26928318736E+02 -0.65063766350E+02  0.11963315845E+03  0.13889784247E+03  0.47000000000E+01 0.  1.
<mgrwt>
<rscale>  0 0.27490768E+03</rscale>
<asrwt>0</asrwt>
<pdfrwt beam="1">  1        1 0.84709933E-01 0.27490768E+03</pdfrwt>
<pdfrwt beam="2">  1       -1 0.52790127E-02 0.27490768E+03</pdfrwt>
<totfact> 0.63978391E+03</totfact>
</mgrwt>
</event>
<event>
 9    1  0.2098759E-002  0.2755448E+03  0.7818608E-02  0.1098147E+00
          4   -1    0    0  501    0  0.00000000000E+00  0.00000000000E+00  0.35241577187E+03  0.35241577187E+03  0.00000000000E+00 0. -1.
         -4   -1    0    0    0  501 -0.00000000000E+00 -0.00000000000E+00 -0.53860347574E+02  0.53860347574E+02  0.00000000000E+00 0. -1.
         36    2    1    2    0    0 -0.44408920985E-15 -0.71054273576E-14  0.29855542430E+03  0.40627611945E+03  0.27554481279E+03 0.  0.
         25    2    3    3    0    0  0.16040549058E+01 -0.49305572286E+02  0.10866563141E+03  0.17194037232E+03  0.12378069209E+03 0.  0.
         25    2    3    3    0    0 -0.16040549058E+01  0.49305572286E+02  0.18988979289E+03  0.23433574712E+03  0.12814638694E+03 0.  0.
          5    1    4    4  502    0 -0.54652074512E+02  0.47127814602E+01  0.47460451032E+02  0.72688678414E+02  0.47000000000E+01 0.  1.
         -5    1    4    4    0  502  0.56256129418E+02 -0.54018353746E+02  0.61205180380E+02  0.99251693910E+02  0.47000000000E+01 0.  1.
          5    1    5    5  503    0 -0.14908832728E+01 -0.30816310973E+02  0.13132052904E+03  0.13497792079E+03  0.47000000000E+01 0. -1.
         -5    1    5    5    0  503 -0.11317163306E+00  0.80121883260E+02  0.58569263847E+02  0.99357826327E+02  0.47000000000E+01 0. -1.
<mgrwt>
<rscale>  0 0.27554481E+03</rscale>
<asrwt>0</asrwt>
<pdfrwt beam="1">  1        4 0.54217810E-01 0.27554481E+03</pdfrwt>
<pdfrwt beam="2">  1       -4 0.82862075E-02 0.27554481E+03</pdfrwt>
<totfact> 0.64054957E+02</totfact>
</mgrwt>
</event>
<event>
 9    1  0.2098759E-002  0.2730086E+03  0.7818608E-02  0.1099570E+00
          2   -1    0    0  501    0  0.00000000000E+00  0.00000000000E+00  0.16749456323E+04  0.16749456323E+04  0.00000000000E+00 0. -1.
         -2   -1    0    0    0  501 -0.00000000000E+00 -0.00000000000E+00 -0.11124792257E+02  0.11124792257E+02  0.00000000000E+00 0. -1.
         36    2    1    2    0    0  0.00000000000E+00  0.00000000000E+00  0.16638208401E+04  0.16860704246E+04  0.27300858742E+03 0.  0.
         25    2    3    3    0    0 -0.19296098374E+02 -0.48070938889E+02  0.73421196196E+03  0.74685711830E+03  0.12666963128E+03 0.  0.
         25    2    3    3    0    0  0.19296098374E+02  0.48070938889E+02  0.92960887810E+03  0.93921330627E+03  0.12355490223E+03 0.  0.
          5    1    4    4  502    0 -0.64783166541E+02 -0.26732072768E+02  0.58803106198E+03  0.59221118044E+03  0.47000000000E+01 0.  1.
         -5    1    4    4    0  502  0.45487068167E+02 -0.21338866122E+02  0.14618089999E+03  0.15464593787E+03  0.47000000000E+01 0.  1.
          5    1    5    5  503    0 -0.51832049405E+02  0.10428177545E+02  0.39932370471E+03  0.40283597081E+03  0.47000000000E+01 0. -1.
         -5    1    5    5    0  503  0.71128147779E+02  0.37642761345E+02  0.53028517338E+03  0.53637733546E+03  0.47000000000E+01 0. -1.
<mgrwt>
<rscale>  0 0.27300859E+03</rscale>
<asrwt>0</asrwt>
<pdfrwt beam="1">  1        2 0.25768374E+00 0.27300859E+03</pdfrwt>
<pdfrwt beam="2">  1       -2 0.17115078E-02 0.27300859E+03</pdfrwt>
<totfact> 0.10706170E+04</totfact>
</mgrwt>
</event>
<event>
 8    1  0.2098759E-002  0.2529765E+03  0.7818608E-02  0.1111438E+00
          1   -1    0    0  501    0  0.00000000000E+00  0.00000000000E+00  0.92180459822E+03  0.92180459822E+03  0.00000000000E+00 0. -1.
         -1   -1    0    0    0  501 -0.00000000000E+00 -0.00000000000E+00 -0.17356470902E+02  0.17356470902E+02  0.00000000000E+00 0. -1.
         25    2    1    2    0    0 -0.10738356056E+02  0.18687289190E+01  0.45523764079E+03  0.47249008550E+03  0.12604271841E+03 0.  0.
         25    2    1    2    0    0  0.10738356056E+02 -0.18687289190E+01  0.44921048653E+03  0.46667098363E+03  0.12598786176E+03 0.  0.
          5    1    3    3  502    0 -0.45811260427E+02 -0.25713515446E+02  0.88552613655E+02  0.10307042177E+03  0.47000000000E+01 0.  1.
         -5    1    3    3    0  502  0.35072904372E+02  0.27582244365E+02  0.36668502713E+03  0.36941966373E+03  0.47000000000E+01 0.  1.
          5    1    4    4  503    0 -0.49735302599E+02  0.14639019119E+02  0.11014421544E+03  0.12182667770E+03  0.47000000000E+01 0.  1.
         -5    1    4    4    0  503  0.60473658654E+02 -0.16507748038E+02  0.33906627110E+03  0.34484430593E+03  0.47000000000E+01 0.  1.
<mgrwt>
<rscale>  0 0.25297648E+03</rscale>
<asrwt>0</asrwt>
<pdfrwt beam="1">  1        1 0.14181605E+00 0.25297648E+03</pdfrwt>
<pdfrwt beam="2">  1       -1 0.26702270E-02 0.25297648E+03</pdfrwt>
<totfact> 0.81898015E+03</totfact>
</mgrwt>
</event>
<event>
 9    1  0.2098759E-002  0.2781872E+03  0.7818608E-02  0.1096683E+00
         -2   -1    0    0    0  501 -0.00000000000E+00  0.00000000000E+00  0.25383133384E+03  0.25383133384E+03  0.00000000000E+00 0. -1.
          2   -1    0    0  501    0  0.00000000000E+00 -0.00000000000E+00 -0.76220002616E+02  0.76220002616E+02  0.00000000000E+00 0. -1.
         36    2    1    2    0    0  0.71054273576E-14  0.00000000000E+00  0.17761133122E+03  0.33005133645E+03  0.27818716670E+03 0.  0.
         25    2    3    3    0    0  0.23713485608E+02  0.38018170880E+02  0.15565425924E+03  0.20428856326E+03  0.12449039298E+03 0.  0.
         25    2    3    3    0    0 -0.23713485608E+02 -0.38018170880E+02  0.21957071986E+02  0.12576277319E+03  0.11544025032E+03 0.  0.
          5    1    4    4  502    0  0.71802742532E+02  0.31218843293E+02  0.67281823345E+02  0.10334013627E+03  0.47000000000E+01 0.  1.
         -5    1    4    4    0  502 -0.48089256924E+02  0.67993275871E+01  0.88372435890E+02  0.10094842699E+03  0.47000000000E+01 0.  1.
          5    1    5    5  503    0 -0.71081964850E+01 -0.58498570175E+02 -0.30754697923E+02  0.66637456540E+02  0.47000000000E+01 0. -1.
         -5    1    5    5    0  503 -0.16605289123E+02  0.20480399295E+02  0.52711769909E+02  0.59125316651E+02  0.47000000000E+01 0. -1.
<mgrwt>
<rscale>  0 0.27818717E+03</rscale>
<asrwt>0</asrwt>
<pdfrwt beam="1">  1        2 0.11726154E-01 0.27818717E+03</pdfrwt>
<pdfrwt beam="2">  1       -2 0.39050974E-01 0.27818717E+03</pdfrwt>
<totfact> 0.32670618E+03</totfact>
</mgrwt>
</event>
<event>
 9    1  0.2098759E-002  0.2750118E+03  0.7818608E-02  0.1098445E+00
         -1   -1    0    0    0  501 -0.00000000000E+00  0.00000000000E+00  0.69082531737E+02  0.69082531737E+02  0.00000000000E+00 0. -1.
          1   -1    0    0  501    0  0.00000000000E+00 -0.00000000000E+00 -0.27369985102E+03  0.27369985102E+03  0.00000000000E+00 0. -1.
         36    2    1    2    0    0  0.21316282073E-13  0.00000000000E+00 -0.20461731928E+03  0.34278238276E+03  0.27501184443E+03 0.  0.
         25    2    3    3    0    0  0.33572272639E+02  0.38566433017E+02 -0.10195973276E+03  0.17049579477E+03  0.12672238036E+03 0.  0.
         25    2    3    3    0    0 -0.33572272639E+02 -0.38566433017E+02 -0.10265758652E+03  0.17228658799E+03  0.12856757400E+03 0.  0.
          5    1    4    4  502    0 -0.40092277821E+02  0.47414196499E+02 -0.44519871530E+02  0.76548061580E+02  0.47000000000E+01 0. -1.
         -5    1    4    4    0  502  0.73664550459E+02 -0.88477634827E+01 -0.57439861232E+02  0.93947733189E+02  0.47000000000E+01 0. -1.
          5    1    5    5  503    0 -0.71734748587E+02 -0.57862642450E+02 -0.52366983735E+02  0.10610537466E+03  0.47000000000E+01 0.  1.
         -5    1    5    5    0  503  0.38162475949E+02  0.19296209433E+02 -0.50290602785E+02  0.66181213328E+02  0.47000000000E+01 0.  1.
<mgrwt>
<rscale>  0 0.27501184E+03</rscale>
<asrwt>0</asrwt>
<pdfrwt beam="1">  1        1 0.42107669E-01 0.27501184E+03</pdfrwt>
<pdfrwt beam="2">  1       -1 0.10628082E-01 0.27501184E+03</pdfrwt>
<totfact> 0.54197836E+03</totfact>
</mgrwt>
</event>
<event>
 9    1  0.2098759E-002  0.2753867E+03  0.7818608E-02  0.1098236E+00
         -4   -1    0    0    0  501 -0.00000000000E+00  0.00000000000E+00  0.29292595499E+03  0.29292595499E+03  0.00000000000E+00 0.  1.
          4   -1    0    0  501    0  0.00000000000E+00 -0.00000000000E+00 -0.64724394893E+02  0.64724394893E+02  0.00000000000E+00 0.  1.
         36    2    1    2    0    0  0.00000000000E+00  0.00000000000E+00  0.22820156010E+03  0.35765034989E+03  0.27538667495E+03 0.  0.
         25    2    3    3    0    0 -0.28101306831E+02 -0.36541307685E+02  0.14515029329E+03  0.19640711391E+03  0.12402498192E+03 0.  0.
         25    2    3    3    0    0  0.28101306831E+02  0.36541307685E+02  0.83051266812E+02  0.16124323598E+03  0.13029550114E+03 0.  0.
          5    1    4    4  502    0  0.71363153649E+01 -0.72320716560E+02  0.48827522260E+02  0.87677990231E+02  0.47000000000E+01 0.  1.
         -5    1    4    4    0  502 -0.35237622196E+02  0.35779408876E+02  0.96322771027E+02  0.10872912368E+03  0.47000000000E+01 0.  1.
          5    1    5    5  503    0  0.53604035502E+01  0.64556650544E+02 -0.58215897787E+01  0.65209477557E+02  0.47000000000E+01 0.  1.
         -5    1    5    5    0  503  0.22740903281E+02 -0.28015342859E+02  0.88872856591E+02  0.96033758420E+02  0.47000000000E+01 0.  1.
<mgrwt>
<rscale>  0 0.27538667E+03</rscale>
<asrwt>0</asrwt>
<pdfrwt beam="1">  1        4 0.99575994E-02 0.27538667E+03</pdfrwt>
<pdfrwt beam="2">  1       -4 0.45065531E-01 0.27538667E+03</pdfrwt>
<totfact> 0.68672464E+02</totfact>
</mgrwt>
</event>
<event>
 9    1  0.2098759E-002  0.2749802E+03  0.7818608E-02  0.1098463E+00
         -2   -1    0    0    0  501 -0.00000000000E+00  0.00000000000E+00  0.70299510100E+01  0.70299510100E+01  0.00000000000E+00 0. -1.
          2   -1    0    0  501    0  0.00000000000E+00 -0.00000000000E+00 -0.26889990508E+04  0.26889990508E+04  0.00000000000E+00 0. -1.
         36    2    1    2    0    0  0.00000000000E+00  0.00000000000E+00 -0.26819690998E+04  0.26960290018E+04  0.27498022906E+03 0.  0.
         25    2    3    3    0    0 -0.14094078621E+02 -0.24551778247E+02 -0.18647661962E+04  0.18692118008E+04  0.12569151549E+03 0.  0.
         25    2    3    3    0    0  0.14094078621E+02  0.24551778247E+02 -0.81720290359E+03  0.82681720096E+03  0.12249353169E+03 0.  0.
          5    1    4    4  502    0  0.52455164677E+02 -0.24719436530E+02 -0.11015491798E+04  0.11030844394E+04  0.47000000000E+01 0.  1.
         -5    1    4    4    0  502 -0.66549243298E+02  0.16765828301E+00 -0.76321701634E+03  0.76612736143E+03  0.47000000000E+01 0.  1.
          5    1    5    5  503    0 -0.37066519601E+02  0.41438968700E+02 -0.21257869865E+03  0.21977922587E+03  0.47000000000E+01 0.  1.
         -5    1    5    5    0  503  0.51160598223E+02 -0.16887190453E+02 -0.60462420494E+03  0.60703797510E+03  0.47000000000E+01 0.  1.
<mgrwt>
<rscale>  0 0.27498023E+03</rscale>
<asrwt>0</asrwt>
<pdfrwt beam="1">  1        2 0.41369233E+00 0.27498023E+03</pdfrwt>
<pdfrwt beam="2">  1       -2 0.10815305E-02 0.27498023E+03</pdfrwt>
<totfact> 0.59918042E+03</totfact>
</mgrwt>
</event>
<event>
 9    1  0.2098759E-002  0.2737135E+03  0.7818608E-02  0.1099173E+00
          1   -1    0    0  501    0  0.00000000000E+00  0.00000000000E+00  0.56219302329E+02  0.56219302329E+02  0.00000000000E+00 0. -1.
         -1   -1    0    0    0  501 -0.00000000000E+00 -0.00000000000E+00 -0.33315546195E+03  0.33315546195E+03  0.00000000000E+00 0. -1.
         36    2    1    2    0    0  0.35527136788E-14  0.71054273576E-14 -0.27693615962E+03  0.38937476428E+03  0.27371348259E+03 0.  0.
         25    2    3    3    0    0 -0.58541630998E+01 -0.54692635498E+02 -0.10774232556E+03  0.17322170954E+03  0.12398304858E+03 0.  0.
         25    2    3    3    0    0  0.58541630998E+01  0.54692635498E+02 -0.16919383406E+03  0.21615305474E+03  0.12276006674E+03 0.  0.
          5    1    4    4  502    0 -0.16966296096E+02 -0.43050448627E+02  0.15360816288E+02  0.48982047806E+02  0.47000000000E+01 0.  1.
         -5    1    4    4    0  502  0.11112132996E+02 -0.11642186871E+02 -0.12310314185E+03  0.12423966174E+03  0.47000000000E+01 0.  1.
          5    1    5    5  503    0 -0.43345469679E+02  0.64294323877E+02 -0.68488401708E+02  0.10356322220E+03  0.47000000000E+01 0. -1.
         -5    1    5    5    0  503  0.49199632779E+02 -0.96016883785E+01 -0.10070543235E+03  0.11258983253E+03  0.47000000000E+01 0. -1.
<mgrwt>
<rscale>  0 0.27371348E+03</rscale>
<asrwt>0</asrwt>
<pdfrwt beam="1">  1        1 0.86491234E-02 0.27371348E+03</pdfrwt>
<pdfrwt beam="2">  1       -1 0.51254686E-01 0.27371348E+03</pdfrwt>
<totfact> 0.30537880E+03</totfact>
</mgrwt>
</event>
<event>
 9    1  0.2098759E-002  0.2752599E+03  0.7818608E-02  0.1098306E+00
         -1   -1    0    0    0  501 -0.00000000000E+00  0.00000000000E+00  0.59737576842E+03  0.59737576842E+03  0.00000000000E+00 0. -1.
          1   -1    0    0  501    0  0.00000000000E+00 -0.00000000000E+00 -0.31708700617E+02  0.31708700617E+02  0.00000000000E+00 0. -1.
         36    2    1    2    0    0 -0.35527136788E-14  0.00000000000E+00  0.56566706780E+03  0.62908446904E+03  0.27525994548E+03 0.  0.
         25    2    3    3    0    0 -0.79992310447E+01  0.55206505467E+02  0.23722783597E+03  0.27385660538E+03  0.12493457570E+03 0.  0.
         25    2    3    3    0    0  0.79992310447E+01 -0.55206505467E+02  0.32843923183E+03  0.35522786366E+03  0.12329947352E+03 0.  0.
          5    1    4    4  502    0 -0.37983079717E+02  0.81796709941E+02  0.19780290141E+03  0.21744308200E+03  0.47000000000E+01 0. -1.
         -5    1    4    4    0  502  0.29983848672E+02 -0.26590204474E+02  0.39424934559E+02  0.56413523380E+02  0.47000000000E+01 0. -1.
          5    1    5    5  503    0  0.45413694074E+02 -0.59580713076E+02  0.29576437061E+03  0.30514081651E+03  0.47000000000E+01 0.  1.
         -5    1    5    5    0  503 -0.37414463029E+02  0.43742076092E+01  0.32674861227E+02  0.50087047150E+02  0.47000000000E+01 0.  1.
<mgrwt>
<rscale>  0 0.27525995E+03</rscale>
<asrwt>0</asrwt>
<pdfrwt beam="1">  1        1 0.48782621E-02 0.27525995E+03</pdfrwt>
<pdfrwt beam="2">  1       -1 0.91903956E-01 0.27525995E+03</pdfrwt>
<totfact> 0.20889861E+03</totfact>
</mgrwt>
</event>
<event>
 9    1  0.2098759E-002  0.2716338E+03  0.7818608E-02  0.1100348E+00
          1   -1    0    0  501    0  0.00000000000E+00  0.00000000000E+00  0.80717936414E+03  0.80717936414E+03  0.00000000000E+00 0. -1.
         -1   -1    0    0    0  501 -0.00000000000E+00 -0.00000000000E+00 -0.22852696939E+02  0.22852696939E+02  0.00000000000E+00 0. -1.
         36    2    1    2    0    0 -0.71054273576E-14  0.00000000000E+00  0.78432666720E+03  0.83003206108E+03  0.27163376362E+03 0.  0.
         25    2    3    3    0    0  0.12655648411E+02 -0.59168964667E+01  0.54065535495E+03  0.55539215456E+03  0.12632124687E+03 0.  0.
         25    2    3    3    0    0 -0.12655648411E+02  0.59168964667E+01  0.24367131225E+03  0.27463990651E+03  0.12592138317E+03 0.  0.
          5    1    4    4  502    0 -0.46535025632E+02 -0.35633110480E+02  0.20672040836E+03  0.21492008842E+03  0.47000000000E+01 0. -1.
         -5    1    4    4    0  502  0.59190674042E+02  0.29716214013E+02  0.33393494659E+03  0.34047206614E+03  0.47000000000E+01 0. -1.
          5    1    5    5  503    0 -0.13594558383E+02 -0.26381022622E+02  0.12964422330E+01  0.30075590346E+02  0.47000000000E+01 0.  1.
         -5    1    5    5    0  503  0.93890997210E+00  0.32297919089E+02  0.24237487001E+03  0.24456431617E+03  0.47000000000E+01 0.  1.
<mgrwt>
<rscale>  0 0.27163376E+03</rscale>
<asrwt>0</asrwt>
<pdfrwt beam="1">  1        1 0.12418142E+00 0.27163376E+03</pdfrwt>
<pdfrwt beam="2">  1       -1 0.35158001E-02 0.27163376E+03</pdfrwt>
<totfact> 0.67575507E+03</totfact>
</mgrwt>
</event>
<event>
 9    1  0.2098759E-002  0.2824153E+03  0.7818608E-02  0.1094377E+00
         -1   -1    0    0    0  501 -0.00000000000E+00  0.00000000000E+00  0.19175884411E+04  0.19175884411E+04  0.00000000000E+00 0.  1.
          1   -1    0    0  501    0  0.00000000000E+00 -0.00000000000E+00 -0.10398267660E+02  0.10398267660E+02  0.00000000000E+00 0.  1.
         36    2    1    2    0    0 -0.71054273576E-14  0.35527136788E-14  0.19071901734E+04  0.19279867088E+04  0.28241528197E+03 0.  0.
         25    2    3    3    0    0 -0.44105480394E+02 -0.73209952966E+01  0.78589952077E+03  0.79866525601E+03  0.13501571776E+03 0.  0.
         25    2    3    3    0    0  0.44105480394E+02  0.73209952966E+01  0.11212906527E+04  0.11293214527E+04  0.12678850697E+03 0.  0.
          5    1    4    4  502    0 -0.76771763835E+02  0.23354988765E+02  0.29673137719E+03  0.30742634798E+03  0.47000000000E+01 0.  1.
         -5    1    4    4    0  502  0.32666283441E+02 -0.30675984062E+02  0.48916814358E+03  0.49123890803E+03  0.47000000000E+01 0.  1.
          5    1    5    5  503    0  0.25503691612E+02  0.65042927949E+02  0.72729995814E+03  0.73066294546E+03  0.47000000000E+01 0. -1.
         -5    1    5    5    0  503  0.18601788782E+02 -0.57721932652E+02  0.39399069452E+03  0.39865850728E+03  0.47000000000E+01 0. -1.
<mgrwt>
<rscale>  0 0.28241528E+03</rscale>
<asrwt>0</asrwt>
<pdfrwt beam="1">  1        1 0.15997350E-02 0.28241528E+03</pdfrwt>
<pdfrwt beam="2">  1       -1 0.29501332E+00 0.28241528E+03</pdfrwt>
<totfact> 0.34443413E+02</totfact>
</mgrwt>
</event>
<event>
 9    1  0.2098759E-002  0.2754445E+03  0.7818608E-02  0.1098203E+00
          1   -1    0    0  501    0  0.00000000000E+00  0.00000000000E+00  0.17005553002E+04  0.17005553002E+04  0.00000000000E+00 0. -1.
         -1   -1    0    0    0  501 -0.00000000000E+00 -0.00000000000E+00 -0.11153658076E+02  0.11153658076E+02  0.00000000000E+00 0. -1.
         36    2    1    2    0    0  0.00000000000E+00 -0.71054273576E-14  0.16894016421E+04  0.17117089583E+04  0.27544445797E+03 0.  0.
         25    2    3    3    0    0  0.17543840098E+02  0.28826871855E+00  0.12148485615E+04  0.12209754062E+04  0.12089683983E+03 0.  0.
         25    2    3    3    0    0 -0.17543840098E+02 -0.28826871855E+00  0.47455308064E+03  0.49073355204E+03  0.12373731581E+03 0.  0.
          5    1    4    4  502    0  0.43183268651E+01  0.56366893435E+02  0.81471756083E+03  0.81669006885E+03  0.47000000000E+01 0.  1.
         -5    1    4    4    0  502  0.13225513232E+02 -0.56078624717E+02  0.40013100065E+03  0.40428533740E+03  0.47000000000E+01 0.  1.
          5    1    5    5  503    0  0.17629090027E+02 -0.55526294265E+02  0.19476750601E+03  0.20334804048E+03  0.47000000000E+01 0.  1.
         -5    1    5    5    0  503 -0.35172930125E+02  0.55238025547E+02  0.27978557463E+03  0.28738551155E+03  0.47000000000E+01 0.  1.
<mgrwt>
<rscale>  0 0.27544446E+03</rscale>
<asrwt>0</asrwt>
<pdfrwt beam="1">  1        1 0.26162369E+00 0.27544446E+03</pdfrwt>
<pdfrwt beam="2">  1       -1 0.17159487E-02 0.27544446E+03</pdfrwt>
<totfact> 0.45313679E+03</totfact>
</mgrwt>
</event>
<event>
 9    1  0.2098759E-002  0.2760666E+03  0.7818608E-02  0.1097857E+00
          2   -1    0    0  501    0  0.00000000000E+00  0.00000000000E+00  0.38801383675E+03  0.38801383675E+03  0.00000000000E+00 0. -1.
         -2   -1    0    0    0  501 -0.00000000000E+00 -0.00000000000E+00 -0.49104430143E+02  0.49104430143E+02  0.00000000000E+00 0. -1.
         36    2    1    2    0    0  0.71054273576E-14  0.00000000000E+00  0.33890940661E+03  0.43711826690E+03  0.27606664660E+03 0.  0.
         25    2    3    3    0    0  0.37037297918E+02  0.15345031911E+02  0.11919356900E+03  0.17541465285E+03  0.12229457103E+03 0.  0.
         25    2    3    3    0    0 -0.37037297918E+02 -0.15345031911E+02  0.21971583761E+03  0.26170361404E+03  0.13640564821E+03 0.  0.
          5    1    4    4  502    0  0.39720185491E+02 -0.49440948643E+02  0.55616275298E+02  0.84482901325E+02  0.47000000000E+01 0.  1.
         -5    1    4    4    0  502 -0.26828875736E+01  0.64785980554E+02  0.63577293700E+02  0.90931751530E+02  0.47000000000E+01 0.  1.
          5    1    5    5  503    0 -0.85936266573E+02 -0.21034406475E+02  0.16930759241E+03  0.19108803996E+03  0.47000000000E+01 0.  1.
         -5    1    5    5    0  503  0.48898968655E+02  0.56893745641E+01  0.50408245202E+02  0.70615574081E+02  0.47000000000E+01 0.  1.
<mgrwt>
<rscale>  0 0.27606665E+03</rscale>
<asrwt>0</asrwt>
<pdfrwt beam="1">  1        2 0.59694434E-01 0.27606665E+03</pdfrwt>
<pdfrwt beam="2">  1       -2 0.75545280E-02 0.27606665E+03</pdfrwt>
<totfact> 0.84834291E+03</totfact>
</mgrwt>
</event>
<event>
 9    1  0.2098759E-002  0.2748362E+03  0.7818608E-02  0.1098543E+00
         -1   -1    0    0    0  501 -0.00000000000E+00  0.00000000000E+00  0.23031492704E+02  0.23031492704E+02  0.00000000000E+00 0. -1.
          1   -1    0    0  501    0  0.00000000000E+00 -0.00000000000E+00 -0.81990923550E+03  0.81990923550E+03  0.00000000000E+00 0. -1.
         36    2    1    2    0    0  0.71054273576E-14  0.00000000000E+00 -0.79687774280E+03  0.84294072820E+03  0.27483619540E+03 0.  0.
         25    2    3    3    0    0  0.19966989157E+02 -0.46842324219E+02 -0.51373719174E+03  0.53101612760E+03  0.12433560067E+03 0.  0.
         25    2    3    3    0    0 -0.19966989157E+02  0.46842324219E+02 -0.28314055105E+03  0.31192460061E+03  0.12056326480E+03 0.  0.
          5    1    4    4  502    0  0.70710958151E+02 -0.12516838547E+02 -0.24539598321E+03  0.25573030604E+03  0.47000000000E+01 0. -1.
         -5    1    4    4    0  502 -0.50743968993E+02 -0.34325485673E+02 -0.26834120853E+03  0.27528582156E+03  0.47000000000E+01 0. -1.
          5    1    5    5  503    0  0.19293988126E+02  0.62630900109E+02 -0.24848994222E+03  0.25702962672E+03  0.47000000000E+01 0.  1.
         -5    1    5    5    0  503 -0.39260977283E+02 -0.15788575890E+02 -0.34650608836E+02  0.54894973892E+02  0.47000000000E+01 0.  1.
<mgrwt>
<rscale>  0 0.27483620E+03</rscale>
<asrwt>0</asrwt>
<pdfrwt beam="1">  1        1 0.12613988E+00 0.27483620E+03</pdfrwt>
<pdfrwt beam="2">  1       -1 0.35433065E-02 0.27483620E+03</pdfrwt>
<totfact> 0.65217368E+03</totfact>
</mgrwt>
</event>
<event>
 9    1  0.2098759E-002  0.2752164E+03  0.7818608E-02  0.1098331E+00
         -2   -1    0    0    0  501 -0.00000000000E+00  0.00000000000E+00  0.72538225592E+02  0.72538225592E+02  0.00000000000E+00 0. -1.
          2   -1    0    0  501    0  0.00000000000E+00 -0.00000000000E+00 -0.26104877570E+03  0.26104877570E+03  0.00000000000E+00 0. -1.
         36    2    1    2    0    0  0.14210854715E-13 -0.88817841970E-15 -0.18851055011E+03  0.33358700129E+03  0.27521638746E+03 0.  0.
         25    2    3    3    0    0  0.33696443754E+02 -0.53217842145E+01 -0.15605697614E+03  0.20207353362E+03  0.12375848043E+03 0.  0.
         25    2    3    3    0    0 -0.33696443754E+02  0.53217842145E+01 -0.32453573968E+02  0.13151346767E+03  0.12279570842E+03 0.  0.
          5    1    4    4  502    0  0.79168234239E+02  0.29210841441E+01 -0.11704467645E+03  0.14141318301E+03  0.47000000000E+01 0.  1.
         -5    1    4    4    0  502 -0.45471790485E+02 -0.82428683586E+01 -0.39012299691E+02  0.60660350607E+02  0.47000000000E+01 0.  1.
          5    1    5    5  503    0 -0.98987990137E+01 -0.53123797634E+02  0.10210574783E+02  0.55194836121E+02  0.47000000000E+01 0.  1.
         -5    1    5    5    0  503 -0.23797644741E+02  0.58445581849E+02 -0.42664148750E+02  0.76318631548E+02  0.47000000000E+01 0.  1.
<mgrwt>
<rscale>  0 0.27521639E+03</rscale>
<asrwt>0</asrwt>
<pdfrwt beam="1">  1        2 0.40161350E-01 0.27521639E+03</pdfrwt>
<pdfrwt beam="2">  1       -2 0.11159727E-01 0.27521639E+03</pdfrwt>
<totfact> 0.70221780E+03</totfact>
</mgrwt>
</event>
<event>
 9    1  0.2098759E-002  0.2752596E+03  0.7818608E-02  0.1098307E+00
          2   -1    0    0  501    0  0.00000000000E+00  0.00000000000E+00  0.18702909858E+03  0.18702909858E+03  0.00000000000E+00 0.  1.
         -2   -1    0    0    0  501 -0.00000000000E+00 -0.00000000000E+00 -0.10127814331E+03  0.10127814331E+03  0.00000000000E+00 0.  1.
         36    2    1    2    0    0  0.17763568394E-14 -0.71054273576E-14  0.85750955273E+02  0.28830724190E+03  0.27525958548E+03 0.  0.
         25    2    3    3    0    0  0.16452173773E+01 -0.51291787284E+02  0.72627774556E+02  0.15450087091E+03  0.12634148682E+03 0.  0.
         25    2    3    3    0    0 -0.16452173773E+01  0.51291787284E+02  0.13123180717E+02  0.13380637098E+03  0.12287543636E+03 0.  0.
          5    1    4    4  502    0  0.49262431999E+02 -0.42165250032E+02 -0.23877059104E+01  0.65057564174E+02  0.47000000000E+01 0. -1.
         -5    1    4    4    0  502 -0.47617214622E+02 -0.91265372519E+01  0.75015480467E+02  0.89443306738E+02  0.47000000000E+01 0. -1.
          5    1    5    5  503    0 -0.64963204908E+01  0.32904945231E+02  0.67766417253E+02  0.75758266268E+02  0.47000000000E+01 0.  1.
         -5    1    5    5    0  503  0.48511031135E+01  0.18386842053E+02 -0.54643236536E+02  0.58048104717E+02  0.47000000000E+01 0.  1.
<mgrwt>
<rscale>  0 0.27525959E+03</rscale>
<asrwt>0</asrwt>
<pdfrwt beam="1">  1        2 0.28773707E-01 0.27525959E+03</pdfrwt>
<pdfrwt beam="2">  1       -2 0.15581253E-01 0.27525959E+03</pdfrwt>
<totfact> 0.58582896E+03</totfact>
</mgrwt>
</event>
<event>
 9    1  0.2098759E-002  0.2742071E+03  0.7818608E-02  0.1098896E+00
          1   -1    0    0  501    0  0.00000000000E+00  0.00000000000E+00  0.30450729510E+03  0.30450729510E+03  0.00000000000E+00 0. -1.
         -1   -1    0    0    0  501 -0.00000000000E+00 -0.00000000000E+00 -0.61730507099E+02  0.61730507099E+02  0.00000000000E+00 0. -1.
         36    2    1    2    0    0 -0.21316282073E-13  0.17763568394E-14  0.24277678800E+03  0.36623780220E+03  0.27420714609E+03 0.  0.
         25    2    3    3    0    0 -0.60662227137E+02 -0.10963560710E+02  0.11687095923E+03  0.18172924902E+03  0.12476615476E+03 0.  0.
         25    2    3    3    0    0  0.60662227137E+02  0.10963560710E+02  0.12590582877E+03  0.18450855318E+03  0.11996259005E+03 0.  0.
          5    1    4    4  502    0  0.27193096112E+02 -0.13761012645E+02  0.81007628613E+02  0.86678462369E+02  0.47000000000E+01 0.  1.
         -5    1    4    4    0  502 -0.87855323249E+02  0.27974519351E+01  0.35863330615E+02  0.95050786653E+02  0.47000000000E+01 0.  1.
          5    1    5    5  503    0  0.38690158794E+02 -0.50965437584E+02  0.37700376674E+02  0.74416480815E+02  0.47000000000E+01 0.  1.
         -5    1    5    5    0  503  0.21972068343E+02  0.61928998294E+02  0.88205452100E+02  0.11009207236E+03  0.47000000000E+01 0.  1.
<mgrwt>
<rscale>  0 0.27420715E+03</rscale>
<asrwt>0</asrwt>
<pdfrwt beam="1">  1        1 0.46847275E-01 0.27420715E+03</pdfrwt>
<pdfrwt beam="2">  1       -1 0.94970013E-02 0.27420715E+03</pdfrwt>
<totfact> 0.56401100E+03</totfact>
</mgrwt>
</event>
<event>
 9    1  0.2098759E-002  0.2760435E+03  0.7818608E-02  0.1097870E+00
          2   -1    0    0  501    0  0.00000000000E+00  0.00000000000E+00  0.54681667428E+03  0.54681667428E+03  0.00000000000E+00 0.  1.
         -2   -1    0    0    0  501 -0.00000000000E+00 -0.00000000000E+00 -0.34837996588E+02  0.34837996588E+02  0.00000000000E+00 0.  1.
         36    2    1    2    0    0  0.00000000000E+00  0.00000000000E+00  0.51197867769E+03  0.58165467086E+03  0.27604345623E+03 0.  0.
         25    2    3    3    0    0 -0.57341521535E+02 -0.77407614423E+01  0.27223711152E+03  0.30506622850E+03  0.12491753040E+03 0.  0.
         25    2    3    3    0    0  0.57341521535E+02  0.77407614423E+01  0.23974156617E+03  0.27658844237E+03  0.12520853973E+03 0.  0.
          5    1    4    4  502    0  0.32165541218E+02 -0.34034273590E+01  0.22457122210E+02  0.39656244118E+02  0.47000000000E+01 0.  1.
         -5    1    4    4    0  502 -0.89507062753E+02 -0.43373340832E+01  0.24977998931E+03  0.26540998438E+03  0.47000000000E+01 0.  1.
          5    1    5    5  503    0  0.95274016218E+02 -0.80141998579E+01  0.15263907084E+03  0.18017253263E+03  0.47000000000E+01 0.  1.
         -5    1    5    5    0  503 -0.37932494683E+02  0.15754961300E+02  0.87102495330E+02  0.96415909741E+02  0.47000000000E+01 0.  1.
<mgrwt>
<rscale>  0 0.27604346E+03</rscale>
<asrwt>0</asrwt>
<pdfrwt beam="1">  1        2 0.84125636E-01 0.27604346E+03</pdfrwt>
<pdfrwt beam="2">  1       -2 0.53596922E-02 0.27604346E+03</pdfrwt>
<totfact> 0.98450741E+03</totfact>
</mgrwt>
</event>
<event>
 9    1  0.2098759E-002  0.2751226E+03  0.7818608E-02  0.1098383E+00
         -2   -1    0    0    0  501 -0.00000000000E+00  0.00000000000E+00  0.50641205179E+02  0.50641205179E+02  0.00000000000E+00 0. -1.
          2   -1    0    0  501    0  0.00000000000E+00 -0.00000000000E+00 -0.37367023380E+03  0.37367023380E+03  0.00000000000E+00 0. -1.
         36    2    1    2    0    0 -0.71054273576E-14  0.00000000000E+00 -0.32302902862E+03  0.42431143898E+03  0.27512259797E+03 0.  0.
         25    2    3    3    0    0  0.23511631277E+02  0.80822205699E+02 -0.15444041737E+03  0.21719900878E+03  0.12743053463E+03 0.  0.
         25    2    3    3    0    0 -0.23511631277E+02 -0.80822205699E+02 -0.16858861125E+03  0.20711243020E+03  0.85955879157E+02 0.  0.
          5    1    4    4  502    0 -0.38210588207E+02  0.79853098028E+02 -0.10848108928E+03  0.14009569246E+03  0.47000000000E+01 0. -1.
         -5    1    4    4    0  502  0.61722219484E+02  0.96910767060E+00 -0.45959328097E+02  0.77103316316E+02  0.47000000000E+01 0. -1.
          5    1    5    5  503    0 -0.32740896049E+01 -0.32229725191E+02 -0.14602553376E+03  0.14964966208E+03  0.47000000000E+01 0. -1.
         -5    1    5    5    0  503 -0.20237541672E+02 -0.48592480508E+02 -0.22563077484E+02  0.57462768124E+02  0.47000000000E+01 0. -1.
<mgrwt>
<rscale>  0 0.27512260E+03</rscale>
<asrwt>0</asrwt>
<pdfrwt beam="1">  1        2 0.57487725E-01 0.27512260E+03</pdfrwt>
<pdfrwt beam="2">  1       -2 0.77909550E-02 0.27512260E+03</pdfrwt>
<totfact> 0.84212778E+03</totfact>
</mgrwt>
</event>
<event>
 9    1  0.2098759E-002  0.2847671E+03  0.7818608E-02  0.1093113E+00
         -1   -1    0    0    0  501 -0.00000000000E+00  0.00000000000E+00  0.51859826018E+03  0.51859826018E+03  0.00000000000E+00 0.  1.
          1   -1    0    0  501    0  0.00000000000E+00 -0.00000000000E+00 -0.39092060071E+02  0.39092060071E+02  0.00000000000E+00 0.  1.
         36    2    1    2    0    0  0.71054273576E-14  0.00000000000E+00  0.47950620011E+03  0.55769032025E+03  0.28476709318E+03 0.  0.
         25    2    3    3    0    0 -0.37574083034E+02 -0.26081789864E+02  0.14008796354E+03  0.19322789072E+03  0.12498123357E+03 0.  0.
         25    2    3    3    0    0  0.37574083034E+02  0.26081789864E+02  0.33941823657E+03  0.36446242953E+03  0.12464369917E+03 0.  0.
          5    1    4    4  502    0  0.29850080422E+02 -0.50983466250E+02  0.79149449034E+02  0.98879049421E+02  0.47000000000E+01 0.  1.
         -5    1    4    4    0  502 -0.67424163456E+02  0.24901676386E+02  0.60938514503E+02  0.94348841299E+02  0.47000000000E+01 0.  1.
          5    1    5    5  503    0  0.62811372124E+02 -0.91857475439E+01  0.84250561098E+02  0.10559305598E+03  0.47000000000E+01 0. -1.
         -5    1    5    5    0  503 -0.25237289090E+02  0.35267537407E+02  0.25516767547E+03  0.25886937355E+03  0.47000000000E+01 0. -1.
<mgrwt>
<rscale>  0 0.28476709E+03</rscale>
<asrwt>0</asrwt>
<pdfrwt beam="1">  1        1 0.60141634E-02 0.28476709E+03</pdfrwt>
<pdfrwt beam="2">  1       -1 0.79784343E-01 0.28476709E+03</pdfrwt>
<totfact> 0.21114554E+03</totfact>
</mgrwt>
</event>
<event>
 9    1  0.2098759E-002  0.2759402E+03  0.7818608E-02  0.1097927E+00
         -2   -1    0    0    0  501 -0.00000000000E+00  0.00000000000E+00  0.72149292120E+01  0.72149292120E+01  0.00000000000E+00 0. -1.
          2   -1    0    0  501    0  0.00000000000E+00 -0.00000000000E+00 -0.26383824796E+04  0.26383824796E+04  0.00000000000E+00 0. -1.
         36    2    1    2    0    0  0.71054273576E-14  0.71054273576E-14 -0.26311675504E+04  0.26455974088E+04  0.27594015891E+03 0.  0.
         25    2    3    3    0    0 -0.32023023070E+02 -0.46955226239E+02 -0.11476529689E+04  0.11557262597E+04  0.12395798932E+03 0.  0.
         25    2    3    3    0    0  0.32023023070E+02  0.46955226239E+02 -0.14835145815E+04  0.14898711491E+04  0.12518090955E+03 0.  0.
          5    1    4    4  502    0 -0.16653777210E+02  0.28790174903E+01 -0.97843396299E+03  0.97859120524E+03  0.47000000000E+01 0.  1.
         -5    1    4    4    0  502 -0.15369245860E+02 -0.49834243729E+02 -0.16921900587E+03  0.17713505445E+03  0.47000000000E+01 0.  1.
          5    1    5    5  503    0 -0.44143062976E+02  0.37101844738E+02 -0.78570621880E+03  0.78783342729E+03  0.47000000000E+01 0.  1.
         -5    1    5    5    0  503  0.76166086046E+02  0.98533815007E+01 -0.69780836269E+03  0.70203772180E+03  0.47000000000E+01 0.  1.
<mgrwt>
<rscale>  0 0.27594016E+03</rscale>
<asrwt>0</asrwt>
<pdfrwt beam="1">  1        2 0.40590458E+00 0.27594016E+03</pdfrwt>
<pdfrwt beam="2">  1       -2 0.11099902E-02 0.27594016E+03</pdfrwt>
<totfact> 0.61587628E+03</totfact>
</mgrwt>
</event>
<event>
 9    1  0.2098759E-002  0.2771814E+03  0.7818608E-02  0.1097238E+00
          2   -1    0    0  501    0  0.00000000000E+00  0.00000000000E+00  0.63694448097E+03  0.63694448097E+03  0.00000000000E+00 0.  1.
         -2   -1    0    0    0  501 -0.00000000000E+00 -0.00000000000E+00 -0.30155513083E+02  0.30155513083E+02  0.00000000000E+00 0.  1.
         36    2    1    2    0    0 -0.71054273576E-14 -0.35527136788E-14  0.60678896789E+03  0.66709999406E+03  0.27718143970E+03 0.  0.
         25    2    3    3    0    0  0.27402648614E+02  0.22580522935E+02  0.33466924822E+03  0.35966355844E+03  0.12686049186E+03 0.  0.
         25    2    3    3    0    0 -0.27402648614E+02 -0.22580522935E+02  0.27211971967E+03  0.30743643562E+03  0.13859016901E+03 0.  0.
          5    1    4    4  502    0 -0.11537272296E+02 -0.45627202954E+02  0.78142656914E+02  0.91341749114E+02  0.47000000000E+01 0. -1.
         -5    1    4    4    0  502  0.38939920910E+02  0.68207725890E+02  0.25652659131E+03  0.26832180932E+03  0.47000000000E+01 0. -1.
          5    1    5    5  503    0  0.52066930672E+02 -0.13743978306E+02  0.60316823316E+02  0.80994267601E+02  0.47000000000E+01 0.  1.
         -5    1    5    5    0  503 -0.79469579286E+02 -0.88365446293E+01  0.21180289635E+03  0.22644216802E+03  0.47000000000E+01 0.  1.
<mgrwt>
<rscale>  0 0.27718144E+03</rscale>
<asrwt>0</asrwt>
<pdfrwt beam="1">  1        2 0.97991448E-01 0.27718144E+03</pdfrwt>
<pdfrwt beam="2">  1       -2 0.46393102E-02 0.27718144E+03</pdfrwt>
<totfact> 0.10276501E+04</totfact>
</mgrwt>
</event>
<event>
 9    1  0.2098759E-002  0.2783197E+03  0.7818608E-02  0.1096610E+00
          3   -1    0    0  501    0  0.00000000000E+00  0.00000000000E+00  0.13068576028E+03  0.13068576028E+03  0.00000000000E+00 0.  1.
         -3   -1    0    0    0  501 -0.00000000000E+00 -0.00000000000E+00 -0.14818337496E+03  0.14818337496E+03  0.00000000000E+00 0.  1.
         36    2    1    2    0    0  0.00000000000E+00  0.00000000000E+00 -0.17497614676E+02  0.27886913524E+03  0.27831965089E+03 0.  0.
         25    2    3    3    0    0  0.30777644762E+02 -0.21265858932E+02 -0.59350959290E+02  0.14326777004E+03  0.12491444029E+03 0.  0.
         25    2    3    3    0    0 -0.30777644762E+02  0.21265858932E+02  0.41853344614E+02  0.13560136520E+03  0.12343633020E+03 0.  0.
          5    1    4    4  502    0 -0.12167100139E+02 -0.42337239506E+02 -0.79610504485E+02  0.91106545314E+02  0.47000000000E+01 0.  1.
         -5    1    4    4    0  502  0.42944744901E+02  0.21071380574E+02  0.20259545195E+02  0.52161224731E+02  0.47000000000E+01 0.  1.
          5    1    5    5  503    0 -0.18050538675E+02  0.57831265832E+02 -0.18698031070E+02  0.63576596481E+02  0.47000000000E+01 0.  1.
         -5    1    5    5    0  503 -0.12727106087E+02 -0.36565406900E+02  0.60551375684E+02  0.72024768714E+02  0.47000000000E+01 0.  1.
<mgrwt>
<rscale>  0 0.27831965E+03</rscale>
<asrwt>0</asrwt>
<pdfrwt beam="1">  1        3 0.20105502E-01 0.27831965E+03</pdfrwt>
<pdfrwt beam="2">  1       -3 0.22797442E-01 0.27831965E+03</pdfrwt>
<totfact> 0.10052481E+03</totfact>
</mgrwt>
</event>
<event>
 9    1  0.2098759E-002  0.2759853E+03  0.7818608E-02  0.1097902E+00
         -2   -1    0    0    0  501 -0.00000000000E+00  0.00000000000E+00  0.22059884042E+02  0.22059884042E+02  0.00000000000E+00 0.  1.
          2   -1    0    0  501    0  0.00000000000E+00 -0.00000000000E+00 -0.86319427539E+03  0.86319427539E+03  0.00000000000E+00 0.  1.
         36    2    1    2    0    0 -0.35527136788E-14 -0.71054273576E-14 -0.84113439135E+03  0.88525415943E+03  0.27598525773E+03 0.  0.
         25    2    3    3    0    0  0.69577296414E+01 -0.53727527348E+02 -0.37283562177E+03  0.39748870771E+03  0.12671154130E+03 0.  0.
         25    2    3    3    0    0 -0.69577296414E+01  0.53727527348E+02 -0.46829876958E+03  0.48776545173E+03  0.12520519602E+03 0.  0.
          5    1    4    4  502    0  0.43421400000E+02 -0.18473348036E+02 -0.43865196579E+02  0.64598204592E+02  0.47000000000E+01 0.  1.
         -5    1    4    4    0  502 -0.36463670359E+02 -0.35254179312E+02 -0.32897042519E+03  0.33289050311E+03  0.47000000000E+01 0.  1.
          5    1    5    5  503    0  0.30974352316E+02  0.76472553780E+02 -0.21019187509E+03  0.22585432548E+03  0.47000000000E+01 0.  1.
         -5    1    5    5    0  503 -0.37932081958E+02 -0.22745026432E+02 -0.25810689449E+03  0.26191112625E+03  0.47000000000E+01 0.  1.
<mgrwt>
<rscale>  0 0.27598526E+03</rscale>
<asrwt>0</asrwt>
<pdfrwt beam="1">  1        2 0.13279911E+00 0.27598526E+03</pdfrwt>
<pdfrwt beam="2">  1       -2 0.33938284E-02 0.27598526E+03</pdfrwt>
<totfact> 0.11277319E+04</totfact>
</mgrwt>
</event>
<event>
 9    1  0.2098759E-002  0.2762411E+03  0.7818608E-02  0.1097760E+00
          2   -1    0    0  501    0  0.00000000000E+00  0.00000000000E+00  0.11724488462E+04  0.11724488462E+04  0.00000000000E+00 0.  1.
         -2   -1    0    0    0  501 -0.00000000000E+00 -0.00000000000E+00 -0.16271313449E+02  0.16271313449E+02  0.00000000000E+00 0.  1.
         36    2    1    2    0    0  0.71054273576E-14  0.00000000000E+00  0.11561775328E+04  0.11887201597E+04  0.27624107356E+03 0.  0.
         25    2    3    3    0    0  0.22821426101E+02  0.51715643694E+02  0.72895568541E+03  0.74153589038E+03  0.12370836729E+03 0.  0.
         25    2    3    3    0    0 -0.22821426101E+02 -0.51715643694E+02  0.42722184737E+03  0.44718426930E+03  0.11941498459E+03 0.  0.
          5    1    4    4  502    0  0.62751718233E+02  0.66809020027E+02  0.44660640590E+03  0.45593924496E+03  0.47000000000E+01 0.  1.
         -5    1    4    4    0  502 -0.39930292132E+02 -0.15093376333E+02  0.28234927951E+03  0.28559664543E+03  0.47000000000E+01 0.  1.
          5    1    5    5  503    0 -0.34147604415E+02 -0.57768259615E+02  0.42822112010E+03  0.43347277701E+03  0.47000000000E+01 0. -1.
         -5    1    5    5    0  503  0.11326178314E+02  0.60526159209E+01 -0.99927273649E+00  0.13711492285E+02  0.47000000000E+01 0. -1.
<mgrwt>
<rscale>  0 0.27624107E+03</rscale>
<asrwt>0</asrwt>
<pdfrwt beam="1">  1        2 0.18037668E+00 0.27624107E+03</pdfrwt>
<pdfrwt beam="2">  1       -2 0.25032799E-02 0.27624107E+03</pdfrwt>
<totfact> 0.11479124E+04</totfact>
</mgrwt>
</event>
<event>
 9    1  0.2098759E-002  0.2754221E+03  0.7818608E-02  0.1098216E+00
         -2   -1    0    0    0  501 -0.00000000000E+00  0.00000000000E+00  0.27043716348E+02  0.27043716348E+02  0.00000000000E+00 0.  1.
          2   -1    0    0  501    0  0.00000000000E+00 -0.00000000000E+00 -0.70124721550E+03  0.70124721550E+03  0.00000000000E+00 0.  1.
         36    2    1    2    0    0  0.71054273576E-14  0.00000000000E+00 -0.67420349915E+03  0.72829093184E+03  0.27542208180E+03 0.  0.
         25    2    3    3    0    0  0.53864389782E+02  0.44426205321E+01 -0.37442013902E+03  0.39872727245E+03  0.12598368120E+03 0.  0.
         25    2    3    3    0    0 -0.53864389782E+02 -0.44426205321E+01 -0.29978336013E+03  0.32956365940E+03  0.12578168873E+03 0.  0.
          5    1    4    4  502    0  0.51488147087E+02  0.56468664716E+02 -0.15139012044E+03  0.16964904348E+03  0.47000000000E+01 0. -1.
         -5    1    4    4    0  502  0.23762426947E+01 -0.52026044184E+02 -0.22303001858E+03  0.22907822897E+03  0.47000000000E+01 0. -1.
          5    1    5    5  503    0 -0.67377926560E+02 -0.30874521382E+02 -0.28776638974E+03  0.29719455938E+03  0.47000000000E+01 0.  1.
         -5    1    5    5    0  503  0.13513536778E+02  0.26431900849E+02 -0.12016970391E+02  0.32369100020E+02  0.47000000000E+01 0.  1.
<mgrwt>
<rscale>  0 0.27542208E+03</rscale>
<asrwt>0</asrwt>
<pdfrwt beam="1">  1        2 0.10788419E+00 0.27542208E+03</pdfrwt>
<pdfrwt beam="2">  1       -2 0.41605717E-02 0.27542208E+03</pdfrwt>
<totfact> 0.10794722E+04</totfact>
</mgrwt>
</event>
<event>
 9    1  0.2098759E-002  0.2756066E+03  0.7818608E-02  0.1098113E+00
         -4   -1    0    0    0  501 -0.00000000000E+00  0.00000000000E+00  0.22411068307E+03  0.22411068307E+03  0.00000000000E+00 0. -1.
          4   -1    0    0  501    0  0.00000000000E+00 -0.00000000000E+00 -0.84733803703E+02  0.84733803703E+02  0.00000000000E+00 0. -1.
         36    2    1    2    0    0  0.71054273576E-14  0.00000000000E+00  0.13937687936E+03  0.30884448677E+03  0.27560660824E+03 0.  0.
         25    2    3    3    0    0 -0.44550162885E+02  0.34180477823E+02  0.34120787537E+02  0.13548752774E+03  0.11848890224E+03 0.  0.
         25    2    3    3    0    0  0.44550162885E+02 -0.34180477823E+02  0.10525609183E+03  0.17335695903E+03  0.12578063563E+03 0.  0.
          5    1    4    4  502    0 -0.71829245519E+02  0.53740353225E+02  0.36415060655E+01  0.89904486222E+02  0.47000000000E+01 0. -1.
         -5    1    4    4    0  502  0.27279082634E+02 -0.19559875401E+02  0.30479281472E+02  0.45583041519E+02  0.47000000000E+01 0. -1.
          5    1    5    5  503    0  0.44705738012E+02 -0.20609346293E+01 -0.16055010771E+02  0.47777649938E+02  0.47000000000E+01 0.  1.
         -5    1    5    5    0  503 -0.15557512690E+00 -0.32119543194E+02  0.12131110260E+03  0.12557930909E+03  0.47000000000E+01 0.  1.
<mgrwt>
<rscale>  0 0.27560661E+03</rscale>
<asrwt>0</asrwt>
<pdfrwt beam="1">  1        4 0.13035970E-01 0.27560661E+03</pdfrwt>
<pdfrwt beam="2">  1       -4 0.34478567E-01 0.27560661E+03</pdfrwt>
<totfact> 0.73517948E+02</totfact>
</mgrwt>
</event>
<event>
 9    1  0.2098759E-002  0.2747236E+03  0.7818608E-02  0.1098606E+00
          2   -1    0    0  501    0  0.00000000000E+00  0.00000000000E+00  0.13669629146E+04  0.13669629146E+04  0.00000000000E+00 0.  1.
         -2   -1    0    0    0  501 -0.00000000000E+00 -0.00000000000E+00 -0.13803058949E+02  0.13803058949E+02  0.00000000000E+00 0.  1.
         36    2    1    2    0    0  0.00000000000E+00  0.00000000000E+00  0.13531598557E+04  0.13807659736E+04  0.27472364071E+03 0.  0.
         25    2    3    3    0    0 -0.23990499890E+02 -0.40602219166E+02  0.71144497401E+03  0.72504958442E+03  0.13160115708E+03 0.  0.
         25    2    3    3    0    0  0.23990499890E+02  0.40602219166E+02  0.64171488167E+03  0.65571638915E+03  0.12626127420E+03 0.  0.
          5    1    4    4  502    0  0.48068763231E+02 -0.20023724836E+02  0.45026250436E+03  0.45328795306E+03  0.47000000000E+01 0. -1.
         -5    1    4    4    0  502 -0.72059263121E+02 -0.20578494330E+02  0.26118246964E+03  0.27176163136E+03  0.47000000000E+01 0. -1.
          5    1    5    5  503    0 -0.34524542711E+02  0.45977249253E+02  0.48254659353E+03  0.48598267091E+03  0.47000000000E+01 0.  1.
         -5    1    5    5    0  503  0.58515042601E+02 -0.53750300867E+01  0.15916828814E+03  0.16973371824E+03  0.47000000000E+01 0.  1.
<mgrwt>
<rscale>  0 0.27472364E+03</rscale>
<asrwt>0</asrwt>
<pdfrwt beam="1">  1        2 0.21030188E+00 0.27472364E+03</pdfrwt>
<pdfrwt beam="2">  1       -2 0.21235486E-02 0.27472364E+03</pdfrwt>
<totfact> 0.11395482E+04</totfact>
</mgrwt>
</event>
<event>
 9    1  0.2098759E-002  0.2739113E+03  0.7818608E-02  0.1099062E+00
          2   -1    0    0  501    0  0.00000000000E+00  0.00000000000E+00  0.27791072838E+04  0.27791072838E+04  0.00000000000E+00 0.  1.
         -2   -1    0    0    0  501 -0.00000000000E+00 -0.00000000000E+00 -0.67492344491E+01  0.67492344491E+01  0.00000000000E+00 0.  1.
         36    2    1    2    0    0  0.17763568394E-14  0.71054273576E-14  0.27723580493E+04  0.27858565182E+04  0.27391127481E+03 0.  0.
         25    2    3    3    0    0 -0.77504120696E+01 -0.30435712340E+02  0.17437437975E+04  0.17485095691E+04  0.12512745633E+03 0.  0.
         25    2    3    3    0    0  0.77504120696E+01  0.30435712340E+02  0.10286142518E+04  0.10373469491E+04  0.13059484060E+03 0.  0.
          5    1    4    4  502    0 -0.25012609885E+02  0.40157801324E+02  0.10209194510E+04  0.10220258779E+04  0.47000000000E+01 0. -1.
         -5    1    4    4    0  502  0.17262197815E+02 -0.70593513663E+02  0.72282434659E+03  0.72648369126E+03  0.47000000000E+01 0. -1.
          5    1    5    5  503    0 -0.61199980339E+01 -0.36665183139E+02  0.11074327133E+03  0.11691001743E+03  0.47000000000E+01 0.  1.
         -5    1    5    5    0  503  0.13870410104E+02  0.67100895478E+02  0.91787098047E+03  0.92043693170E+03  0.47000000000E+01 0.  1.
<mgrwt>
<rscale>  0 0.27391127E+03</rscale>
<asrwt>0</asrwt>
<pdfrwt beam="1">  1        2 0.42755405E+00 0.27391127E+03</pdfrwt>
<pdfrwt beam="2">  1       -2 0.10383460E-02 0.27391127E+03</pdfrwt>
<totfact> 0.56531709E+03</totfact>
</mgrwt>
</event>
<event>
 9    1  0.2098759E-002  0.2721787E+03  0.7818608E-02  0.1100039E+00
         -3   -1    0    0    0  501 -0.00000000000E+00  0.00000000000E+00  0.37713377280E+02  0.37713377280E+02  0.00000000000E+00 0. -1.
          3   -1    0    0  501    0  0.00000000000E+00 -0.00000000000E+00 -0.49108079750E+03  0.49108079750E+03  0.00000000000E+00 0. -1.
         36    2    1    2    0    0 -0.35527136788E-14  0.00000000000E+00 -0.45336742022E+03  0.52879417478E+03  0.27217873092E+03 0.  0.
         25    2    3    3    0    0  0.22549205032E+02 -0.22236831600E+02 -0.31106841684E+03  0.33675786986E+03  0.12505742534E+03 0.  0.
         25    2    3    3    0    0 -0.22549205032E+02  0.22236831600E+02 -0.14229900338E+03  0.19203630492E+03  0.12500397080E+03 0.  0.
          5    1    4    4  502    0 -0.22781242623E+01  0.44136654445E+02 -0.20033842733E+03  0.20520918494E+03  0.47000000000E+01 0. -1.
         -5    1    4    4    0  502  0.24827329295E+02 -0.66373486045E+02 -0.11072998951E+03  0.13154868492E+03  0.47000000000E+01 0. -1.
          5    1    5    5  503    0 -0.52186985272E+02 -0.16446289873E+01 -0.14440592940E+03  0.15362730448E+03  0.47000000000E+01 0.  1.
         -5    1    5    5    0  503  0.29637780240E+02  0.23881460587E+02  0.21069260188E+01  0.38409000437E+02  0.47000000000E+01 0.  1.
<mgrwt>
<rscale>  0 0.27217873E+03</rscale>
<asrwt>0</asrwt>
<pdfrwt beam="1">  1        3 0.75550886E-01 0.27217873E+03</pdfrwt>
<pdfrwt beam="2">  1       -3 0.58020585E-02 0.27217873E+03</pdfrwt>
<totfact> 0.77086561E+02</totfact>
</mgrwt>
</event>
<event>
 9    1  0.2098759E-002  0.2760651E+03  0.7818608E-02  0.1097858E+00
         -2   -1    0    0    0  501 -0.00000000000E+00  0.00000000000E+00  0.93162576316E+01  0.93162576316E+01  0.00000000000E+00 0.  1.
          2   -1    0    0  501    0  0.00000000000E+00 -0.00000000000E+00 -0.20451322011E+04  0.20451322011E+04  0.00000000000E+00 0.  1.
         36    2    1    2    0    0 -0.17763568394E-14  0.71054273576E-14 -0.20358159434E+04  0.20544484587E+04  0.27606505375E+03 0.  0.
         25    2    3    3    0    0 -0.21588082984E+01 -0.39720572619E+02 -0.12269335540E+04  0.12336932058E+04  0.12268086979E+03 0.  0.
         25    2    3    3    0    0  0.21588082984E+01  0.39720572619E+02 -0.80888238944E+03  0.82075525288E+03  0.13328946262E+03 0.  0.
          5    1    4    4  502    0  0.11243564667E+02 -0.75318381290E+02 -0.10441921783E+04  0.10469759651E+04  0.47000000000E+01 0. -1.
         -5    1    4    4    0  502 -0.13402372966E+02  0.35597808671E+02 -0.18274137565E+03  0.18671724066E+03  0.47000000000E+01 0. -1.
          5    1    5    5  503    0  0.39534438880E+02 -0.34290881623E+02 -0.40734044229E+03  0.41071542745E+03  0.47000000000E+01 0. -1.
         -5    1    5    5    0  503 -0.37375630582E+02  0.74011454242E+02 -0.40154194715E+03  0.41003982543E+03  0.47000000000E+01 0. -1.
<mgrwt>
<rscale>  0 0.27606505E+03</rscale>
<asrwt>0</asrwt>
<pdfrwt beam="1">  1        2 0.31463520E+00 0.27606505E+03</pdfrwt>
<pdfrwt beam="2">  1       -2 0.14332728E-02 0.27606505E+03</pdfrwt>
<totfact> 0.88701770E+03</totfact>
</mgrwt>
</event>
<event>
 9    1  0.2098759E-002  0.2743493E+03  0.7818608E-02  0.1098816E+00
          2   -1    0    0  501    0  0.00000000000E+00  0.00000000000E+00  0.32145414062E+03  0.32145414062E+03  0.00000000000E+00 0.  1.
         -2   -1    0    0    0  501 -0.00000000000E+00 -0.00000000000E+00 -0.58536751124E+02  0.58536751124E+02  0.00000000000E+00 0.  1.
         36    2    1    2    0    0 -0.71054273576E-14  0.35527136788E-14  0.26291738949E+03  0.37999089174E+03  0.27434927393E+03 0.  0.
         25    2    3    3    0    0  0.24812517562E+02 -0.97698173620E+01  0.18730089218E+03  0.23179708555E+03  0.13392966177E+03 0.  0.
         25    2    3    3    0    0 -0.24812517562E+02  0.97698173620E+01  0.75616497317E+02  0.14819380619E+03  0.12462920672E+03 0.  0.
          5    1    4    4  502    0  0.65824266844E+02  0.13935093421E+02  0.43343155442E+02  0.80173187898E+02  0.47000000000E+01 0. -1.
         -5    1    4    4    0  502 -0.41011749281E+02 -0.23704910783E+02  0.14395773673E+03  0.15162389765E+03  0.47000000000E+01 0. -1.
          5    1    5    5  503    0  0.12970049513E+02 -0.17446917380E+02  0.94976622861E+02  0.97546224942E+02  0.47000000000E+01 0. -1.
         -5    1    5    5    0  503 -0.37782567076E+02  0.27216734742E+02 -0.19360125544E+02  0.50647581245E+02  0.47000000000E+01 0. -1.
<mgrwt>
<rscale>  0 0.27434927E+03</rscale>
<asrwt>0</asrwt>
<pdfrwt beam="1">  1        2 0.49454482E-01 0.27434927E+03</pdfrwt>
<pdfrwt beam="2">  1       -2 0.90056542E-02 0.27434927E+03</pdfrwt>
<totfact> 0.78930047E+03</totfact>
</mgrwt>
</event>
<event>
 9    1  0.2098759E-002  0.2733453E+03  0.7818608E-02  0.1099380E+00
          3   -1    0    0  501    0  0.00000000000E+00  0.00000000000E+00  0.16359914876E+03  0.16359914876E+03  0.00000000000E+00 0. -1.
         -3   -1    0    0    0  501 -0.00000000000E+00 -0.00000000000E+00 -0.11417790190E+03  0.11417790190E+03  0.00000000000E+00 0. -1.
         36    2    1    2    0    0 -0.71054273576E-14 -0.71054273576E-14  0.49421246862E+02  0.27777705065E+03  0.27334525829E+03 0.  0.
         25    2    3    3    0    0  0.36497384718E+02 -0.34106078046E+02  0.18547897777E+02  0.13964864460E+03  0.12908305766E+03 0.  0.
         25    2    3    3    0    0 -0.36497384718E+02  0.34106078046E+02  0.30873349084E+02  0.13812840606E+03  0.12502403459E+03 0.  0.
          5    1    4    4  502    0 -0.48317308598E+02 -0.19004738596E+02  0.66356285464E+01  0.52553439141E+02  0.47000000000E+01 0.  1.
         -5    1    4    4    0  502  0.84814693316E+02 -0.15101339450E+02  0.11912269231E+02  0.87095205458E+02  0.47000000000E+01 0.  1.
          5    1    5    5  503    0  0.24231883733E+02 -0.34141605396E+02  0.18965617645E+01  0.42172507097E+02  0.47000000000E+01 0.  1.
         -5    1    5    5    0  503 -0.60729268450E+02  0.68247683443E+02  0.28976787320E+02  0.95955898960E+02  0.47000000000E+01 0.  1.
<mgrwt>
<rscale>  0 0.27334526E+03</rscale>
<asrwt>0</asrwt>
<pdfrwt beam="1">  1        3 0.25169100E-01 0.27334526E+03</pdfrwt>
<pdfrwt beam="2">  1       -3 0.17565831E-01 0.27334526E+03</pdfrwt>
<totfact> 0.10642244E+03</totfact>
</mgrwt>
</event>
<event>
 9    1  0.2098759E-002  0.2696403E+03  0.7818608E-02  0.1101486E+00
         -2   -1    0    0    0  501 -0.00000000000E+00  0.00000000000E+00  0.46561757496E+02  0.46561757496E+02  0.00000000000E+00 0.  1.
          2   -1    0    0  501    0  0.00000000000E+00 -0.00000000000E+00 -0.39037329642E+03  0.39037329642E+03  0.00000000000E+00 0.  1.
         36    2    1    2    0    0 -0.53290705182E-14  0.35527136788E-14 -0.34381153893E+03  0.43693505392E+03  0.26964025486E+03 0.  0.
         25    2    3    3    0    0 -0.10149326280E+02 -0.24617381373E+02 -0.91881201610E+02  0.15504966370E+03  0.12202138631E+03 0.  0.
         25    2    3    3    0    0  0.10149326280E+02  0.24617381373E+02 -0.25193033732E+03  0.28188539021E+03  0.12361817854E+03 0.  0.
          5    1    4    4  502    0 -0.92177003690E-01  0.12198233637E+02 -0.11123525687E+03  0.11200079362E+03  0.47000000000E+01 0.  1.
         -5    1    4    4    0  502 -0.10057149276E+02 -0.36815615010E+02  0.19354055263E+02  0.43048870081E+02  0.47000000000E+01 0.  1.
          5    1    5    5  503    0  0.50916086025E+02  0.95045064316E-01 -0.40814238378E+02  0.65424375458E+02  0.47000000000E+01 0.  1.
         -5    1    5    5    0  503 -0.40766759745E+02  0.24522336308E+02 -0.21111609894E+03  0.21646101475E+03  0.47000000000E+01 0.  1.
<mgrwt>
<rscale>  0 0.26964025E+03</rscale>
<asrwt>0</asrwt>
<pdfrwt beam="1">  1        2 0.60057428E-01 0.26964025E+03</pdfrwt>
<pdfrwt beam="2">  1       -2 0.71633475E-02 0.26964025E+03</pdfrwt>
<totfact> 0.91449567E+03</totfact>
</mgrwt>
</event>
<event>
 9    1  0.2098759E-002  0.2747021E+03  0.7818608E-02  0.1098618E+00
         -2   -1    0    0    0  501 -0.00000000000E+00  0.00000000000E+00  0.38885111893E+02  0.38885111893E+02  0.00000000000E+00 0.  1.
          2   -1    0    0  501    0  0.00000000000E+00 -0.00000000000E+00 -0.48515514670E+03  0.48515514670E+03  0.00000000000E+00 0.  1.
         36    2    1    2    0    0  0.00000000000E+00 -0.35527136788E-14 -0.44627003481E+03  0.52404025859E+03  0.27470210895E+03 0.  0.
         25    2    3    3    0    0 -0.30385831163E+02  0.24091710888E+02 -0.19981641684E+03  0.23792134559E+03  0.12319195176E+03 0.  0.
         25    2    3    3    0    0  0.30385831163E+02 -0.24091710888E+02 -0.24645361797E+03  0.28611891301E+03  0.14007475612E+03 0.  0.
          5    1    4    4  502    0 -0.39445500882E+01 -0.17707380017E+01  0.16876432272E+02  0.18044360746E+02  0.47000000000E+01 0.  1.
         -5    1    4    4    0  502 -0.26441281074E+02  0.25862448890E+02 -0.21669284911E+03  0.21987698484E+03  0.47000000000E+01 0.  1.
          5    1    5    5  503    0  0.42595910165E+02  0.23471392227E+02 -0.22843375016E+03  0.23360091187E+03  0.47000000000E+01 0. -1.
         -5    1    5    5    0  503 -0.12210079002E+02 -0.47563103115E+02 -0.18019867809E+02  0.52518001133E+02  0.47000000000E+01 0. -1.
<mgrwt>
<rscale>  0 0.27470211E+03</rscale>
<asrwt>0</asrwt>
<pdfrwt beam="1">  1        2 0.74639255E-01 0.27470211E+03</pdfrwt>
<pdfrwt beam="2">  1       -2 0.59823248E-02 0.27470211E+03</pdfrwt>
<totfact> 0.95190613E+03</totfact>
</mgrwt>
</event>
<event>
 9    1  0.2098759E-002  0.2749832E+03  0.7818608E-02  0.1098461E+00
          2   -1    0    0  501    0  0.00000000000E+00  0.00000000000E+00  0.41480854516E+03  0.41480854516E+03  0.00000000000E+00 0.  1.
         -4   -1    0    0    0  501 -0.00000000000E+00 -0.00000000000E+00 -0.45572691971E+02  0.45572691971E+02  0.00000000000E+00 0.  1.
         36    2    1    2    0    0  0.35527136788E-14  0.00000000000E+00  0.36923585319E+03  0.46038123714E+03  0.27498321444E+03 0.  0.
         25    2    3    3    0    0 -0.23779621195E+02 -0.47724525749E+02  0.24071151124E+03  0.27365609615E+03  0.11875405920E+03 0.  0.
         25    2    3    3    0    0  0.23779621195E+02  0.47724525749E+02  0.12852434195E+03  0.18672514098E+03  0.12451775398E+03 0.  0.
          5    1    4    4  502    0 -0.22453553828E+02 -0.12251507893E+02  0.23612856608E+03  0.23755641698E+03  0.47000000000E+01 0. -1.
         -5    1    4    4    0  502 -0.13260673672E+01 -0.35473017856E+02  0.45829451535E+01  0.36099679178E+02  0.47000000000E+01 0. -1.
          5    1    5    5  503    0  0.32165392840E+02  0.87816949034E+02  0.81028965784E+02  0.12383138669E+03  0.47000000000E+01 0.  1.
         -5    1    5    5    0  503 -0.83857716448E+01 -0.40092423285E+02  0.47495376170E+02  0.62893754288E+02  0.47000000000E+01 0.  1.
<mgrwt>
<rscale>  0 0.27498321E+03</rscale>
<asrwt>0</asrwt>
<pdfrwt beam="1">  1        2 0.63816697E-01 0.27498321E+03</pdfrwt>
<pdfrwt beam="2">  1       -4 0.70111836E-02 0.27498321E+03</pdfrwt>
<totfact> 0.57576755E+03</totfact>
</mgrwt>
</event>
<event>
 9    1  0.2098759E-002  0.2757168E+03  0.7818608E-02  0.1098052E+00
         -4   -1    0    0    0  501 -0.00000000000E+00  0.00000000000E+00  0.63466179448E+03  0.63466179448E+03  0.00000000000E+00 0. -1.
          4   -1    0    0  501    0  0.00000000000E+00 -0.00000000000E+00 -0.29944976252E+02  0.29944976252E+02  0.00000000000E+00 0. -1.
         36    2    1    2    0    0  0.00000000000E+00  0.00000000000E+00  0.60471681822E+03  0.66460677073E+03  0.27571675585E+03 0.  0.
         25    2    3    3    0    0  0.38191011885E+02 -0.19739163313E+02  0.34316054351E+03  0.36680453654E+03  0.12222201705E+03 0.  0.
         25    2    3    3    0    0 -0.38191011885E+02  0.19739163313E+02  0.26155627472E+03  0.29780223419E+03  0.13574350034E+03 0.  0.
          5    1    4    4  502    0  0.36257084858E+02  0.25676162567E+02  0.30204771511E+03  0.30533383980E+03  0.47000000000E+01 0.  1.
         -5    1    4    4    0  502  0.19339270275E+01 -0.45415325881E+02  0.41112828396E+02  0.61470696737E+02  0.47000000000E+01 0.  1.
          5    1    5    5  503    0  0.90132935709E+01  0.28707880537E+02  0.24481784977E+03  0.24670478599E+03  0.47000000000E+01 0. -1.
         -5    1    5    5    0  503 -0.47204305456E+02 -0.89687172241E+01  0.16738424950E+02  0.51097448195E+02  0.47000000000E+01 0. -1.
<mgrwt>
<rscale>  0 0.27571676E+03</rscale>
<asrwt>0</asrwt>
<pdfrwt beam="1">  1        4 0.46069199E-02 0.27571676E+03</pdfrwt>
<pdfrwt beam="2">  1       -4 0.97640266E-01 0.27571676E+03</pdfrwt>
<totfact> 0.46095594E+02</totfact>
</mgrwt>
</event>
<event>
 9    1  0.2098759E-002  0.2746803E+03  0.7818608E-02  0.1098630E+00
          2   -1    0    0  501    0  0.00000000000E+00  0.00000000000E+00  0.14978562315E+04  0.14978562315E+04  0.00000000000E+00 0. -1.
         -2   -1    0    0    0  501 -0.00000000000E+00 -0.00000000000E+00 -0.12592876183E+02  0.12592876183E+02  0.00000000000E+00 0. -1.
         36    2    1    2    0    0  0.14210854715E-13  0.53290705182E-14  0.14852633553E+04  0.15104491077E+04  0.27468030918E+03 0.  0.
         25    2    3    3    0    0  0.58965947042E+02  0.15999124184E+02  0.76692985040E+03  0.77970290461E+03  0.12657910231E+03 0.  0.
         25    2    3    3    0    0 -0.58965947042E+02 -0.15999124184E+02  0.71833350492E+03  0.73074620307E+03  0.11939025977E+03 0.  0.
          5    1    4    4  502    0  0.75966349458E+01 -0.42995465130E+02  0.48805021370E+03  0.49002185663E+03  0.47000000000E+01 0. -1.
         -5    1    4    4    0  502  0.51369312096E+02  0.58994589314E+02  0.27887963670E+03  0.28968104798E+03  0.47000000000E+01 0. -1.
          5    1    5    5  503    0  0.34843536090E+02 -0.31931355396E+01  0.28414519521E+03  0.28632996714E+03  0.47000000000E+01 0.  1.
         -5    1    5    5    0  503 -0.93809483133E+02 -0.12805988645E+02  0.43418830971E+03  0.44441623593E+03  0.47000000000E+01 0.  1.
<mgrwt>
<rscale>  0 0.27468031E+03</rscale>
<asrwt>0</asrwt>
<pdfrwt beam="1">  1        2 0.23043928E+00 0.27468031E+03</pdfrwt>
<pdfrwt beam="2">  1       -2 0.19373667E-02 0.27468031E+03</pdfrwt>
<totfact> 0.11082675E+04</totfact>
</mgrwt>
</event>
<event>
 9    1  0.2098759E-002  0.2751136E+03  0.7818608E-02  0.1098388E+00
         -2   -1    0    0    0  501 -0.00000000000E+00  0.00000000000E+00  0.15039083586E+02  0.15039083586E+02  0.00000000000E+00 0. -1.
          2   -1    0    0  501    0  0.00000000000E+00 -0.00000000000E+00 -0.12581796887E+04  0.12581796887E+04  0.00000000000E+00 0. -1.
         36    2    1    2    0    0  0.17763568394E-14 -0.71054273576E-14 -0.12431406052E+04  0.12732187723E+04  0.27511357295E+03 0.  0.
         25    2    3    3    0    0 -0.84676484448E+01  0.12776495157E+02 -0.33914097174E+03  0.36266524744E+03  0.12757171743E+03 0.  0.
         25    2    3    3    0    0  0.84676484448E+01 -0.12776495157E+02 -0.90399963341E+03  0.91055352488E+03  0.10796964654E+03 0.  0.
          5    1    4    4  502    0 -0.17454709503E+02 -0.50221204224E+02 -0.23114164227E+03  0.23722433482E+03  0.47000000000E+01 0. -1.
         -5    1    4    4    0  502  0.89870610585E+01  0.62997699381E+02 -0.10799932947E+03  0.12544091262E+03  0.47000000000E+01 0. -1.
          5    1    5    5  503    0 -0.43295910122E+02  0.13715919746E+02 -0.26581132156E+03  0.26970430281E+03  0.47000000000E+01 0.  1.
         -5    1    5    5    0  503  0.51763558566E+02 -0.26492414903E+02 -0.63818831185E+03  0.64084922207E+03  0.47000000000E+01 0.  1.
<mgrwt>
<rscale>  0 0.27511357E+03</rscale>
<asrwt>0</asrwt>
<pdfrwt beam="1">  1        2 0.19356616E+00 0.27511357E+03</pdfrwt>
<pdfrwt beam="2">  1       -2 0.23137045E-02 0.27511357E+03</pdfrwt>
<totfact> 0.11531968E+04</totfact>
</mgrwt>
</event>
<event>
 9    1  0.2098759E-002  0.2749049E+03  0.7818608E-02  0.1098505E+00
         -1   -1    0    0    0  501 -0.00000000000E+00  0.00000000000E+00  0.30383610726E+02  0.30383610726E+02  0.00000000000E+00 0. -1.
          1   -1    0    0  501    0  0.00000000000E+00 -0.00000000000E+00 -0.62182110283E+03  0.62182110283E+03  0.00000000000E+00 0. -1.
         36    2    1    2    0    0  0.00000000000E+00  0.14210854715E-13 -0.59143749210E+03  0.65220471355E+03  0.27490485867E+03 0.  0.
         25    2    3    3    0    0  0.20354818396E+02  0.32091662146E+02 -0.39493753770E+03  0.41546577029E+03  0.12325564566E+03 0.  0.
         25    2    3    3    0    0 -0.20354818396E+02 -0.32091662146E+02 -0.19649995440E+03  0.23673894326E+03  0.12644722918E+03 0.  0.
          5    1    4    4  502    0 -0.49593743423E+02  0.23787594709E+02 -0.22000604264E+03  0.22682622830E+03  0.47000000000E+01 0.  1.
         -5    1    4    4    0  502  0.69948561818E+02  0.83040674373E+01 -0.17493149506E+03  0.18863954198E+03  0.47000000000E+01 0.  1.
          5    1    5    5  503    0  0.41030331186E+02 -0.11709673030E+02 -0.15235970390E+03  0.15829142078E+03  0.47000000000E+01 0.  1.
         -5    1    5    5    0  503 -0.61385149582E+02 -0.20381989116E+02 -0.44140250498E+02  0.78447522482E+02  0.47000000000E+01 0.  1.
<mgrwt>
<rscale>  0 0.27490486E+03</rscale>
<asrwt>0</asrwt>
<pdfrwt beam="1">  1        1 0.95664772E-01 0.27490486E+03</pdfrwt>
<pdfrwt beam="2">  1       -1 0.46744023E-02 0.27490486E+03</pdfrwt>
<totfact> 0.64906418E+03</totfact>
</mgrwt>
</event>
<event>
 9    1  0.2098759E-002  0.2750449E+03  0.7818608E-02  0.1098427E+00
          2   -1    0    0  501    0  0.00000000000E+00  0.00000000000E+00  0.15318527862E+03  0.15318527862E+03  0.00000000000E+00 0. -1.
         -2   -1    0    0    0  501 -0.00000000000E+00 -0.00000000000E+00 -0.12346108586E+03  0.12346108586E+03  0.00000000000E+00 0. -1.
         36    2    1    2    0    0  0.00000000000E+00  0.35527136788E-14  0.29724192760E+02  0.27664636448E+03  0.27504487514E+03 0.  0.
         25    2    3    3    0    0 -0.39701233513E+02  0.13719465111E+02  0.24626394323E+02  0.14209440560E+03  0.13349138227E+03 0.  0.
         25    2    3    3    0    0  0.39701233513E+02 -0.13719465111E+02  0.50977984368E+01  0.13455195888E+03  0.12772560598E+03 0.  0.
          5    1    4    4  502    0  0.46484303564E+02 -0.12768754570E+02 -0.27990309206E+00  0.48435523295E+02  0.47000000000E+01 0. -1.
         -5    1    4    4    0  502 -0.86185537078E+02  0.26488219681E+02  0.24906297415E+02  0.93658882302E+02  0.47000000000E+01 0. -1.
          5    1    5    5  503    0  0.74630578370E+02 -0.41072660345E+02 -0.13202316424E+02  0.86331209968E+02  0.47000000000E+01 0.  1.
         -5    1    5    5    0  503 -0.34929344857E+02  0.27353195234E+02  0.18300114861E+02  0.48220748911E+02  0.47000000000E+01 0.  1.
<mgrwt>
<rscale>  0 0.27504488E+03</rscale>
<asrwt>0</asrwt>
<pdfrwt beam="1">  1        2 0.23566966E-01 0.27504488E+03</pdfrwt>
<pdfrwt beam="2">  1       -2 0.18994013E-01 0.27504488E+03</pdfrwt>
<totfact> 0.52465706E+03</totfact>
</mgrwt>
</event>
<event>
 9    1  0.2098759E-002  0.2749731E+03  0.7818608E-02  0.1098467E+00
          1   -1    0    0  501    0  0.00000000000E+00  0.00000000000E+00  0.13739943592E+03  0.13739943592E+03  0.00000000000E+00 0. -1.
         -1   -1    0    0    0  501 -0.00000000000E+00 -0.00000000000E+00 -0.13757367691E+03  0.13757367691E+03  0.00000000000E+00 0. -1.
         36    2    1    2    0    0  0.00000000000E+00  0.00000000000E+00 -0.17424098848E+00  0.27497311283E+03  0.27497305763E+03 0.  0.
         25    2    3    3    0    0  0.38942554611E+02  0.19945151370E+02  0.37636403274E+02  0.13705247384E+03  0.12430828657E+03 0.  0.
         25    2    3    3    0    0 -0.38942554611E+02 -0.19945151370E+02 -0.37810644262E+02  0.13792063900E+03  0.12521232455E+03 0.  0.
          5    1    4    4  502    0  0.72840355101E+02  0.19222736806E+02 -0.12334888973E+02  0.76481830702E+02  0.47000000000E+01 0.  1.
         -5    1    4    4    0  502 -0.33897800491E+02  0.72241456466E+00  0.49971292247E+02  0.60570643135E+02  0.47000000000E+01 0.  1.
          5    1    5    5  503    0 -0.82424531838E+02  0.42005819862E+01 -0.22614195814E+02  0.85702626506E+02  0.47000000000E+01 0. -1.
         -5    1    5    5    0  503  0.43481977227E+02 -0.24145733357E+02 -0.15196448448E+02  0.52218012490E+02  0.47000000000E+01 0. -1.
<mgrwt>
<rscale>  0 0.27497306E+03</rscale>
<asrwt>0</asrwt>
<pdfrwt beam="1">  1        1 0.21138375E-01 0.27497306E+03</pdfrwt>
<pdfrwt beam="2">  1       -1 0.21165181E-01 0.27497306E+03</pdfrwt>
<totfact> 0.43378982E+03</totfact>
</mgrwt>
</event>
<event>
 9    1  0.2098759E-002  0.2752036E+03  0.7818608E-02  0.1098338E+00
          2   -1    0    0  501    0  0.00000000000E+00  0.00000000000E+00  0.21537956747E+03  0.21537956747E+03  0.00000000000E+00 0.  1.
         -2   -1    0    0    0  501 -0.00000000000E+00 -0.00000000000E+00 -0.87911125036E+02  0.87911125036E+02  0.00000000000E+00 0.  1.
         36    2    1    2    0    0  0.00000000000E+00  0.00000000000E+00  0.12746844244E+03  0.30329069251E+03  0.27520363433E+03 0.  0.
         25    2    3    3    0    0  0.12761184734E+02  0.50654272718E+02  0.44290511070E+02  0.14211494577E+03  0.12452431594E+03 0.  0.
         25    2    3    3    0    0 -0.12761184734E+02 -0.50654272718E+02  0.83177931367E+02  0.16117574674E+03  0.12779025741E+03 0.  0.
          5    1    4    4  502    0  0.52005073706E+02  0.70397030071E+02  0.43679469397E+02  0.97929850305E+02  0.47000000000E+01 0.  1.
         -5    1    4    4    0  502 -0.39243888972E+02 -0.19742757353E+02  0.61104167263E+00  0.44185095467E+02  0.47000000000E+01 0.  1.
          5    1    5    5  503    0 -0.64904898190E+02 -0.16839094329E+02  0.15132383031E+02  0.68900507422E+02  0.47000000000E+01 0. -1.
         -5    1    5    5    0  503  0.52143713456E+02 -0.33815178389E+02  0.68045548336E+02  0.92275239316E+02  0.47000000000E+01 0. -1.
<mgrwt>
<rscale>  0 0.27520363E+03</rscale>
<asrwt>0</asrwt>
<pdfrwt beam="1">  1        2 0.33135318E-01 0.27520363E+03</pdfrwt>
<pdfrwt beam="2">  1       -2 0.13524789E-01 0.27520363E+03</pdfrwt>
<totfact> 0.63364966E+03</totfact>
</mgrwt>
</event>
<event>
 9    1  0.2098759E-002  0.2786013E+03  0.7818608E-02  0.1096455E+00
         -2   -1    0    0    0  501 -0.00000000000E+00  0.00000000000E+00  0.12470331725E+02  0.12470331725E+02  0.00000000000E+00 0. -1.
          2   -1    0    0  501    0  0.00000000000E+00 -0.00000000000E+00 -0.15560674609E+04  0.15560674609E+04  0.00000000000E+00 0. -1.
         36    2    1    2    0    0  0.00000000000E+00  0.17763568394E-14 -0.15435971292E+04  0.15685377926E+04  0.27860134546E+03 0.  0.
         25    2    3    3    0    0 -0.45575967134E+02 -0.14421222126E+02 -0.91317765231E+03  0.92382402979E+03  0.13142401951E+03 0.  0.
         25    2    3    3    0    0  0.45575967134E+02  0.14421222126E+02 -0.63041947684E+03  0.64471376281E+03  0.12626154900E+03 0.  0.
          5    1    4    4  502    0 -0.41897543601E+02  0.17990056189E+02 -0.10029291012E+03  0.11027150177E+03  0.47000000000E+01 0.  1.
         -5    1    4    4    0  502 -0.36784235330E+01 -0.32411278315E+02 -0.81288474219E+03  0.81355252802E+03  0.47000000000E+01 0.  1.
          5    1    5    5  503    0  0.83974876357E+02  0.14772326551E+02 -0.53463113879E+03  0.54140792944E+03  0.47000000000E+01 0.  1.
         -5    1    5    5    0  503 -0.38398909223E+02 -0.35110442516E+00 -0.95788338045E+02  0.10330583337E+03  0.47000000000E+01 0.  1.
<mgrwt>
<rscale>  0 0.27860135E+03</rscale>
<asrwt>0</asrwt>
<pdfrwt beam="1">  1        2 0.23939520E+00 0.27860135E+03</pdfrwt>
<pdfrwt beam="2">  1       -2 0.19185110E-02 0.27860135E+03</pdfrwt>
<totfact> 0.10469793E+04</totfact>
</mgrwt>
</event>
<event>
 9    1  0.2098759E-002  0.2799115E+03  0.7818608E-02  0.1095737E+00
          1   -1    0    0  501    0  0.00000000000E+00  0.00000000000E+00  0.10516508235E+04  0.10516508235E+04  0.00000000000E+00 0. -1.
         -1   -1    0    0    0  501 -0.00000000000E+00 -0.00000000000E+00 -0.18625579955E+02  0.18625579955E+02  0.00000000000E+00 0. -1.
         36    2    1    2    0    0  0.00000000000E+00  0.00000000000E+00  0.10330252435E+04  0.10702764034E+04  0.27991146098E+03 0.  0.
         25    2    3    3    0    0  0.35253349034E+02 -0.92354579155E+01  0.72058190990E+03  0.73176505022E+03  0.12212169155E+03 0.  0.
         25    2    3    3    0    0 -0.35253349034E+02  0.92354579155E+01  0.31244333362E+03  0.33851135321E+03  0.12506401252E+03 0.  0.
          5    1    4    4  502    0  0.60709083237E+02  0.98468647795E+01  0.18091904490E+03  0.19114482557E+03  0.47000000000E+01 0.  1.
         -5    1    4    4    0  502 -0.25455734204E+02 -0.19082322695E+02  0.53966286500E+03  0.54062022466E+03  0.47000000000E+01 0.  1.
          5    1    5    5  503    0 -0.60731898498E+01 -0.54795510151E+02  0.95244270933E+02  0.11014986479E+03  0.47000000000E+01 0.  1.
         -5    1    5    5    0  503 -0.29180159184E+02  0.64030968067E+02  0.21719906269E+03  0.22836148842E+03  0.47000000000E+01 0.  1.
<mgrwt>
<rscale>  0 0.27991146E+03</rscale>
<asrwt>0</asrwt>
<pdfrwt beam="1">  1        1 0.16179239E+00 0.27991146E+03</pdfrwt>
<pdfrwt beam="2">  1       -1 0.28654747E-02 0.27991146E+03</pdfrwt>
<totfact> 0.59086148E+03</totfact>
</mgrwt>
</event>
<event>
 9    1  0.2098759E-002  0.2750332E+03  0.7818608E-02  0.1098433E+00
          2   -1    0    0  501    0  0.00000000000E+00  0.00000000000E+00  0.79447357684E+03  0.79447357684E+03  0.00000000000E+00 0. -1.
         -2   -1    0    0    0  501 -0.00000000000E+00 -0.00000000000E+00 -0.23802953089E+02  0.23802953089E+02  0.00000000000E+00 0. -1.
         36    2    1    2    0    0  0.00000000000E+00  0.35527136788E-14  0.77067062375E+03  0.81827652993E+03  0.27503321458E+03 0.  0.
         25    2    3    3    0    0 -0.32081737509E+02 -0.31217907310E+02  0.52880537157E+03  0.54524116854E+03  0.12509602409E+03 0.  0.
         25    2    3    3    0    0  0.32081737509E+02  0.31217907310E+02  0.24186525218E+03  0.27303536139E+03  0.11851460982E+03 0.  0.
          5    1    4    4  502    0 -0.68304321222E+01 -0.43361590904E+02  0.54733669283E+02  0.70318894488E+02  0.47000000000E+01 0. -1.
         -5    1    4    4    0  502 -0.25251305387E+02  0.12143683594E+02  0.47407170229E+03  0.47492227405E+03  0.47000000000E+01 0. -1.
          5    1    5    5  503    0  0.52386378336E+02  0.28512206565E+01  0.35104966914E+02  0.63300164269E+02  0.47000000000E+01 0. -1.
         -5    1    5    5    0  503 -0.20304640827E+02  0.28366686654E+02  0.20676028526E+03  0.20973519712E+03  0.47000000000E+01 0. -1.
<mgrwt>
<rscale>  0 0.27503321E+03</rscale>
<asrwt>0</asrwt>
<pdfrwt beam="1">  1        2 0.12222668E+00 0.27503321E+03</pdfrwt>
<pdfrwt beam="2">  1       -2 0.36619934E-02 0.27503321E+03</pdfrwt>
<totfact> 0.11200487E+04</totfact>
</mgrwt>
</event>
<event>
 9    1  0.2098759E-002  0.2749918E+03  0.7818608E-02  0.1098456E+00
          1   -1    0    0  501    0  0.00000000000E+00  0.00000000000E+00  0.91323711184E+02  0.91323711184E+02  0.00000000000E+00 0.  1.
         -1   -1    0    0    0  501 -0.00000000000E+00 -0.00000000000E+00 -0.20701213871E+03  0.20701213871E+03  0.00000000000E+00 0.  1.
         36    2    1    2    0    0  0.00000000000E+00  0.00000000000E+00 -0.11568842752E+03  0.29833584989E+03  0.27499175818E+03 0.  0.
         25    2    3    3    0    0  0.32578207688E+02  0.23581428207E+02 -0.21674277339E+02  0.13432365844E+03  0.12631566627E+03 0.  0.
         25    2    3    3    0    0 -0.32578207688E+02 -0.23581428207E+02 -0.94014150185E+02  0.16401219145E+03  0.12823382993E+03 0.  0.
          5    1    4    4  502    0  0.52176826189E+01 -0.18899521835E+02  0.45714913946E+02  0.49963581683E+02  0.47000000000E+01 0. -1.
         -5    1    4    4    0  502  0.27360525069E+02  0.42480950042E+02 -0.67389191285E+02  0.84360076757E+02  0.47000000000E+01 0. -1.
          5    1    5    5  503    0 -0.75357972272E+02  0.68636833466E+01 -0.31139718620E+02  0.81961614245E+02  0.47000000000E+01 0.  1.
         -5    1    5    5    0  503  0.42779764584E+02 -0.30445111554E+02 -0.62874431565E+02  0.82050577207E+02  0.47000000000E+01 0.  1.
<mgrwt>
<rscale>  0 0.27499176E+03</rscale>
<asrwt>0</asrwt>
<pdfrwt beam="1">  1        1 0.14049802E-01 0.27499176E+03</pdfrwt>
<pdfrwt beam="2">  1       -1 0.31848021E-01 0.27499176E+03</pdfrwt>
<totfact> 0.37266813E+03</totfact>
</mgrwt>
</event>
<event>
 9    1  0.2098759E-002  0.2740752E+03  0.7818608E-02  0.1098970E+00
          3   -1    0    0  501    0  0.00000000000E+00  0.00000000000E+00  0.18575571851E+03  0.18575571851E+03  0.00000000000E+00 0. -1.
         -3   -1    0    0    0  501 -0.00000000000E+00 -0.00000000000E+00 -0.10109679247E+03  0.10109679247E+03  0.00000000000E+00 0. -1.
         36    2    1    2    0    0 -0.71054273576E-14  0.35527136788E-14  0.84658926037E+02  0.28685251097E+03  0.27407522561E+03 0.  0.
         25    2    3    3    0    0  0.34940826476E+02  0.16700405376E+02  0.91551094622E+02  0.15778615468E+03  0.12253612850E+03 0.  0.
         25    2    3    3    0    0 -0.34940826476E+02 -0.16700405376E+02 -0.68921685844E+01  0.12906635630E+03  0.12292622766E+03 0.  0.
          5    1    4    4  502    0 -0.39669225182E+02  0.30203535735E+02  0.51786756809E+02  0.72040677247E+02  0.47000000000E+01 0.  1.
         -5    1    4    4    0  502  0.74610051659E+02 -0.13503130359E+02  0.39764337813E+02  0.85745477430E+02  0.47000000000E+01 0.  1.
          5    1    5    5  503    0  0.42600562634E+02  0.13292033206E+02 -0.90030613617E+01  0.45767141022E+02  0.47000000000E+01 0.  1.
         -5    1    5    5    0  503 -0.77541389110E+02 -0.29992438582E+02  0.21108927773E+01  0.83299215275E+02  0.47000000000E+01 0.  1.
<mgrwt>
<rscale>  0 0.27407523E+03</rscale>
<asrwt>0</asrwt>
<pdfrwt beam="1">  1        3 0.28577803E-01 0.27407523E+03</pdfrwt>
<pdfrwt beam="2">  1       -3 0.15553353E-01 0.27407523E+03</pdfrwt>
<totfact> 0.10417358E+03</totfact>
</mgrwt>
</event>
<event>
 9    1  0.2098759E-002  0.2688900E+03  0.7818608E-02  0.1101917E+00
         -2   -1    0    0    0  501 -0.00000000000E+00  0.00000000000E+00  0.49313834550E+02  0.49313834550E+02  0.00000000000E+00 0. -1.
          2   -1    0    0  501    0  0.00000000000E+00 -0.00000000000E+00 -0.36653926506E+03  0.36653926506E+03  0.00000000000E+00 0. -1.
         36    2    1    2    0    0  0.00000000000E+00 -0.35527136788E-14 -0.31722543051E+03  0.41585309961E+03  0.26888998995E+03 0.  0.
         25    2    3    3    0    0 -0.33561334006E+02 -0.91294240251E+01 -0.21373691469E+03  0.24752864937E+03  0.11990518768E+03 0.  0.
         25    2    3    3    0    0  0.33561334006E+02  0.91294240251E+01 -0.10348851582E+03  0.16832445025E+03  0.12811533132E+03 0.  0.
          5    1    4    4  502    0  0.11303257219E+02  0.24231088005E+02 -0.18005319282E+03  0.18208830686E+03  0.47000000000E+01 0. -1.
         -5    1    4    4    0  502 -0.44864591225E+02 -0.33360512030E+02 -0.33683721869E+02  0.65440342508E+02  0.47000000000E+01 0. -1.
          5    1    5    5  503    0  0.32859255756E+02 -0.30669290144E+02 -0.11747865208E+03  0.12587160021E+03  0.47000000000E+01 0. -1.
         -5    1    5    5    0  503  0.70207825000E+00  0.39798714169E+02  0.13990136254E+02  0.42452850031E+02  0.47000000000E+01 0. -1.
<mgrwt>
<rscale>  0 0.26888999E+03</rscale>
<asrwt>0</asrwt>
<pdfrwt beam="1">  1        2 0.56390654E-01 0.26888999E+03</pdfrwt>
<pdfrwt beam="2">  1       -2 0.75867441E-02 0.26888999E+03</pdfrwt>
<totfact> 0.89537713E+03</totfact>
</mgrwt>
</event>
<event>
 9    1  0.2098759E-002  0.2753419E+03  0.7818608E-02  0.1098261E+00
          2   -1    0    0  501    0  0.00000000000E+00  0.00000000000E+00  0.11770007244E+04  0.11770007244E+04  0.00000000000E+00 0. -1.
         -2   -1    0    0    0  501 -0.00000000000E+00 -0.00000000000E+00 -0.16103039498E+02  0.16103039498E+02  0.00000000000E+00 0. -1.
         36    2    1    2    0    0 -0.14210854715E-13  0.00000000000E+00  0.11608976849E+04  0.11931037639E+04  0.27534189041E+03 0.  0.
         25    2    3    3    0    0  0.43800380042E+02  0.56164044178E+02  0.59549138969E+03  0.61010098091E+03  0.11198365310E+03 0.  0.
         25    2    3    3    0    0 -0.43800380042E+02 -0.56164044178E+02  0.56540629517E+03  0.58300278294E+03  0.12302476643E+03 0.  0.
          5    1    4    4  502    0  0.16554895025E+02 -0.16253560710E+02  0.25232745101E+02  0.34598037667E+02  0.47000000000E+01 0. -1.
         -5    1    4    4    0  502  0.27245485017E+02  0.72417604889E+02  0.57025864459E+03  0.57550294324E+03  0.47000000000E+01 0. -1.
          5    1    5    5  503    0 -0.74387285928E+02 -0.13602556339E+02  0.44774289711E+03  0.45410823574E+03  0.47000000000E+01 0. -1.
         -5    1    5    5    0  503  0.30586905887E+02 -0.42561487839E+02  0.11766339805E+03  0.12889454721E+03  0.47000000000E+01 0. -1.
<mgrwt>
<rscale>  0 0.27534189E+03</rscale>
<asrwt>0</asrwt>
<pdfrwt beam="1">  1        2 0.18107697E+00 0.27534189E+03</pdfrwt>
<pdfrwt beam="2">  1       -2 0.24773916E-02 0.27534189E+03</pdfrwt>
<totfact> 0.11586270E+04</totfact>
</mgrwt>
</event>
<event>
 9    1  0.2098759E-002  0.2750683E+03  0.7818608E-02  0.1098413E+00
         -2   -1    0    0    0  501 -0.00000000000E+00  0.00000000000E+00  0.72659593721E+02  0.72659593721E+02  0.00000000000E+00 0.  1.
          2   -1    0    0  501    0  0.00000000000E+00 -0.00000000000E+00 -0.26033226772E+03  0.26033226772E+03  0.00000000000E+00 0.  1.
         36    2    1    2    0    0  0.71054273576E-14 -0.71054273576E-14 -0.18767267400E+03  0.33299186144E+03  0.27506825920E+03 0.  0.
         25    2    3    3    0    0 -0.29152156726E+02  0.44185740462E+02 -0.93943340923E+02  0.16556991750E+03  0.12564162676E+03 0.  0.
         25    2    3    3    0    0  0.29152156726E+02 -0.44185740462E+02 -0.93729333077E+02  0.16742194394E+03  0.12822905885E+03 0.  0.
          5    1    4    4  502    0  0.16997427416E+02  0.25927654802E+02  0.22706027047E+02  0.38714460948E+02  0.47000000000E+01 0. -1.
         -5    1    4    4    0  502 -0.46149584142E+02  0.18258085660E+02 -0.11664936797E+03  0.12685545655E+03  0.47000000000E+01 0. -1.
          5    1    5    5  503    0  0.64596035012E+02 -0.18958689306E+01 -0.91344831373E+02  0.11199200988E+03  0.47000000000E+01 0. -1.
         -5    1    5    5    0  503 -0.35443878285E+02 -0.42289871531E+02 -0.23845017038E+01  0.55429934065E+02  0.47000000000E+01 0. -1.
<mgrwt>
<rscale>  0 0.27506826E+03</rscale>
<asrwt>0</asrwt>
<pdfrwt beam="1">  1        2 0.40051118E-01 0.27506826E+03</pdfrwt>
<pdfrwt beam="2">  1       -2 0.11178399E-01 0.27506826E+03</pdfrwt>
<totfact> 0.70239982E+03</totfact>
</mgrwt>
</event>
<event>
 9    1  0.2098759E-002  0.2749557E+03  0.7818608E-02  0.1098476E+00
         -3   -1    0    0    0  501 -0.00000000000E+00  0.00000000000E+00  0.65120051570E+03  0.65120051570E+03  0.00000000000E+00 0.  1.
          3   -1    0    0  501    0  0.00000000000E+00 -0.00000000000E+00 -0.29023554639E+02  0.29023554639E+02  0.00000000000E+00 0.  1.
         36    2    1    2    0    0 -0.71054273576E-14  0.00000000000E+00  0.62217696106E+03  0.68022407034E+03  0.27495566005E+03 0.  0.
         25    2    3    3    0    0 -0.31277891941E+02 -0.27066663838E+02  0.22740222559E+03  0.26361075432E+03  0.12675940506E+03 0.  0.
         25    2    3    3    0    0  0.31277891941E+02  0.27066663838E+02  0.39477473547E+03  0.41661331603E+03  0.12652530383E+03 0.  0.
          5    1    4    4  502    0 -0.33599559359E+02 -0.74837154844E+02  0.16947742334E+03  0.18834600382E+03  0.47000000000E+01 0.  1.
         -5    1    4    4    0  502  0.23216674175E+01  0.47770491006E+02  0.57924802256E+02  0.75264750494E+02  0.47000000000E+01 0.  1.
          5    1    5    5  503    0  0.42136123957E+02 -0.18716224937E+02  0.34446583820E+03  0.34756949479E+03  0.47000000000E+01 0. -1.
         -5    1    5    5    0  503 -0.10858232015E+02  0.45782888776E+02  0.50308897270E+02  0.69043821241E+02  0.47000000000E+01 0. -1.
<mgrwt>
<rscale>  0 0.27495566E+03</rscale>
<asrwt>0</asrwt>
<pdfrwt beam="1">  1        3 0.44651627E-02 0.27495566E+03</pdfrwt>
<pdfrwt beam="2">  1       -3 0.10018468E+00 0.27495566E+03</pdfrwt>
<totfact> 0.62404793E+02</totfact>
</mgrwt>
</event>
<event>
 9    1  0.2098759E-002  0.2734309E+03  0.7818608E-02  0.1099332E+00
         -2   -1    0    0    0  501 -0.00000000000E+00  0.00000000000E+00  0.47729928658E+02  0.47729928658E+02  0.00000000000E+00 0.  1.
          2   -1    0    0  501    0  0.00000000000E+00 -0.00000000000E+00 -0.39160162912E+03  0.39160162912E+03  0.00000000000E+00 0.  1.
         36    2    1    2    0    0  0.00000000000E+00  0.48849813084E-14 -0.34387170046E+03  0.43933155778E+03  0.27343092598E+03 0.  0.
         25    2    3    3    0    0 -0.24895189310E+02 -0.13863682467E+01 -0.10018826358E+03  0.16506729864E+03  0.12879375937E+03 0.  0.
         25    2    3    3    0    0  0.24895189310E+02  0.13863682467E+01 -0.24368343688E+03  0.27426425913E+03  0.12335953130E+03 0.  0.
          5    1    4    4  502    0 -0.20290967651E+02  0.37274681653E+01  0.28840434518E+02  0.35769792427E+02  0.47000000000E+01 0. -1.
         -5    1    4    4    0  502 -0.46042216593E+01 -0.51138364119E+01 -0.12902869810E+03  0.12929750622E+03  0.47000000000E+01 0. -1.
          5    1    5    5  503    0  0.16672040186E+02  0.57777060109E+02 -0.75558446857E+02  0.96681510591E+02  0.47000000000E+01 0. -1.
         -5    1    5    5    0  503  0.82231491244E+01 -0.56390691862E+02 -0.16812499002E+03  0.17758274854E+03  0.47000000000E+01 0. -1.
<mgrwt>
<rscale>  0 0.27343093E+03</rscale>
<asrwt>0</asrwt>
<pdfrwt beam="1">  1        2 0.60246406E-01 0.27343093E+03</pdfrwt>
<pdfrwt beam="2">  1       -2 0.73430657E-02 0.27343093E+03</pdfrwt>
<totfact> 0.87749421E+03</totfact>
</mgrwt>
</event>
<event>
 9    1  0.2098759E-002  0.2753547E+03  0.7818608E-02  0.1098254E+00
         -2   -1    0    0    0  501 -0.00000000000E+00  0.00000000000E+00  0.15946360462E+03  0.15946360462E+03  0.00000000000E+00 0. -1.
          2   -1    0    0  501    0  0.00000000000E+00 -0.00000000000E+00 -0.11886754350E+03  0.11886754350E+03  0.00000000000E+00 0. -1.
         36    2    1    2    0    0 -0.17763568394E-14  0.71054273576E-14  0.40596061121E+02  0.27833114812E+03  0.27535465828E+03 0.  0.
         25    2    3    3    0    0  0.15684824604E+02 -0.44927311418E+02  0.51138753987E+02  0.14282919751E+03  0.12458142104E+03 0.  0.
         25    2    3    3    0    0 -0.15684824604E+02  0.44927311418E+02 -0.10542692866E+02  0.13550195061E+03  0.12643240570E+03 0.  0.
          5    1    4    4  502    0 -0.21744362236E+02 -0.76816808516E+02  0.14378132099E+02  0.81255523149E+02  0.47000000000E+01 0.  1.
         -5    1    4    4    0  502  0.37429186840E+02  0.31889497098E+02  0.36760621888E+02  0.61573674360E+02  0.47000000000E+01 0.  1.
          5    1    5    5  503    0 -0.27443898877E+02 -0.40105750415E+02 -0.81412631702E+01  0.49497565273E+02  0.47000000000E+01 0.  1.
         -5    1    5    5    0  503  0.11759074274E+02  0.85033061833E+02 -0.24014296957E+01  0.86004385336E+02  0.47000000000E+01 0.  1.
<mgrwt>
<rscale>  0 0.27535466E+03</rscale>
<asrwt>0</asrwt>
<pdfrwt beam="1">  1        2 0.18287314E-01 0.27535466E+03</pdfrwt>
<pdfrwt beam="2">  1       -2 0.24532862E-01 0.27535466E+03</pdfrwt>
<totfact> 0.45021452E+03</totfact>
</mgrwt>
</event>
<event>
 9    1  0.2098759E-002  0.2735232E+03  0.7818608E-02  0.1099280E+00
         -1   -1    0    0    0  501 -0.00000000000E+00  0.00000000000E+00  0.13029940162E+02  0.13029940162E+02  0.00000000000E+00 0. -1.
          1   -1    0    0  501    0  0.00000000000E+00 -0.00000000000E+00 -0.14354426150E+04  0.14354426150E+04  0.00000000000E+00 0. -1.
         36    2    1    2    0    0  0.00000000000E+00 -0.35527136788E-14 -0.14224126748E+04  0.14484725551E+04  0.27352317181E+03 0.  0.
         25    2    3    3    0    0 -0.51707149190E+02  0.22803331723E+02 -0.67364815283E+03  0.68739974401E+03  0.12459114355E+03 0.  0.
         25    2    3    3    0    0  0.51707149190E+02 -0.22803331723E+02 -0.74876452200E+03  0.76107281113E+03  0.12405600844E+03 0.  0.
          5    1    4    4  502    0 -0.86695082665E+02  0.14459745045E+02 -0.31961760856E+03  0.33151565165E+03  0.47000000000E+01 0.  1.
         -5    1    4    4    0  502  0.34987933475E+02  0.83435866775E+01 -0.35403054426E+03  0.35588409237E+03  0.47000000000E+01 0.  1.
          5    1    5    5  503    0 -0.37201165693E+02 -0.44703474639E+01 -0.12084166403E+03  0.12660453586E+03  0.47000000000E+01 0.  1.
         -5    1    5    5    0  503  0.88908314884E+02 -0.18332984259E+02 -0.62792285797E+03  0.63446827527E+03  0.47000000000E+01 0.  1.
<mgrwt>
<rscale>  0 0.27352317E+03</rscale>
<asrwt>0</asrwt>
<pdfrwt beam="1">  1        1 0.22083719E+00 0.27352317E+03</pdfrwt>
<pdfrwt beam="2">  1       -1 0.20046074E-02 0.27352317E+03</pdfrwt>
<totfact> 0.53992535E+03</totfact>
</mgrwt>
</event>
<event>
 9    1  0.2098759E-002  0.2775881E+03  0.7818608E-02  0.1097014E+00
          2   -1    0    0  501    0  0.00000000000E+00  0.00000000000E+00  0.29870783045E+03  0.29870783045E+03  0.00000000000E+00 0. -1.
         -2   -1    0    0    0  501 -0.00000000000E+00 -0.00000000000E+00 -0.64490409416E+02  0.64490409416E+02  0.00000000000E+00 0. -1.
         36    2    1    2    0    0  0.00000000000E+00  0.00000000000E+00  0.23421742103E+03  0.36319823986E+03  0.27758811416E+03 0.  0.
         25    2    3    3    0    0 -0.18774089206E+02 -0.55318136512E+02  0.98086759025E+02  0.17084344698E+03  0.12709802685E+03 0.  0.
         25    2    3    3    0    0  0.18774089206E+02  0.55318136512E+02  0.13613066201E+03  0.19235479288E+03  0.12270389787E+03 0.  0.
          5    1    4    4  502    0 -0.79302941613E+01 -0.93121560371E+02  0.42969326522E+02  0.10297071231E+03  0.47000000000E+01 0.  1.
         -5    1    4    4    0  502 -0.10843795045E+02  0.37803423859E+02  0.55117432503E+02  0.67872734674E+02  0.47000000000E+01 0.  1.
          5    1    5    5  503    0 -0.18240073585E+02  0.50733427652E+02  0.14410042317E+03  0.15392726505E+03  0.47000000000E+01 0. -1.
         -5    1    5    5    0  503  0.37014162791E+02  0.45847088598E+01 -0.79697611667E+01  0.38427527835E+02  0.47000000000E+01 0. -1.
<mgrwt>
<rscale>  0 0.27758811E+03</rscale>
<asrwt>0</asrwt>
<pdfrwt beam="1">  1        2 0.45955050E-01 0.27758811E+03</pdfrwt>
<pdfrwt beam="2">  1       -2 0.99216016E-02 0.27758811E+03</pdfrwt>
<totfact> 0.73309384E+03</totfact>
</mgrwt>
</event>
<event>
 9    1  0.2098759E-002  0.2748297E+03  0.7818608E-02  0.1098547E+00
          2   -1    0    0  501    0  0.00000000000E+00  0.00000000000E+00  0.20237825030E+03  0.20237825030E+03  0.00000000000E+00 0.  1.
         -2   -1    0    0    0  501 -0.00000000000E+00 -0.00000000000E+00 -0.93304702340E+02  0.93304702340E+02  0.00000000000E+00 0.  1.
         36    2    1    2    0    0  0.00000000000E+00  0.35527136788E-14  0.10907354796E+03  0.29568295264E+03  0.27482971022E+03 0.  0.
         25    2    3    3    0    0  0.26789744494E+02  0.20643294943E+02  0.48622686525E+02  0.14079806697E+03  0.12773446669E+03 0.  0.
         25    2    3    3    0    0 -0.26789744494E+02 -0.20643294943E+02  0.60450861439E+02  0.15488488568E+03  0.13853225302E+03 0.  0.
          5    1    4    4  502    0 -0.45690557070E+02 -0.16496473137E+02  0.29438646486E+02  0.56995478226E+02  0.47000000000E+01 0.  1.
         -5    1    4    4    0  502  0.72480301564E+02  0.37139768080E+02  0.19184040039E+02  0.83802588743E+02  0.47000000000E+01 0.  1.
          5    1    5    5  503    0  0.21460648680E+02 -0.27325930797E+02 -0.33790847883E+02  0.48694736229E+02  0.47000000000E+01 0. -1.
         -5    1    5    5    0  503 -0.48250393175E+02  0.66826358545E+01  0.94241709323E+02  0.10619014945E+03  0.47000000000E+01 0. -1.
<mgrwt>
<rscale>  0 0.27482971E+03</rscale>
<asrwt>0</asrwt>
<pdfrwt beam="1">  1        2 0.31135115E-01 0.27482971E+03</pdfrwt>
<pdfrwt beam="2">  1       -2 0.14354570E-01 0.27482971E+03</pdfrwt>
<totfact> 0.61512060E+03</totfact>
</mgrwt>
</event>
<event>
 9    1  0.2098759E-002  0.2749856E+03  0.7818608E-02  0.1098460E+00
         -2   -1    0    0    0  501 -0.00000000000E+00  0.00000000000E+00  0.83217523557E+01  0.83217523557E+01  0.00000000000E+00 0.  1.
          2   -1    0    0  501    0  0.00000000000E+00 -0.00000000000E+00 -0.22716692811E+04  0.22716692811E+04  0.00000000000E+00 0.  1.
         36    2    1    2    0    0  0.00000000000E+00  0.00000000000E+00 -0.22633475287E+04  0.22799910334E+04  0.27498559374E+03 0.  0.
         25    2    3    3    0    0 -0.21038234870E+02  0.36433876628E+02 -0.74268775463E+03  0.75384795114E+03  0.12219491754E+03 0.  0.
         25    2    3    3    0    0  0.21038234870E+02 -0.36433876628E+02 -0.15206597741E+04  0.15261430823E+04  0.12221507431E+03 0.  0.
          5    1    4    4  502    0  0.31833099305E+01 -0.66189140230E+01  0.75377404478E+00  0.87522374435E+01  0.47000000000E+01 0.  1.
         -5    1    4    4    0  502 -0.24221544801E+02  0.43052790651E+02 -0.74344152867E+03  0.74509571370E+03  0.47000000000E+01 0.  1.
          5    1    5    5  503    0 -0.45692849769E+02 -0.36274404980E+02 -0.52864076031E+03  0.53187104869E+03  0.47000000000E+01 0.  1.
         -5    1    5    5    0  503  0.66731084639E+02 -0.15947164804E+00 -0.99201901380E+03  0.99427203361E+03  0.47000000000E+01 0.  1.
<mgrwt>
<rscale>  0 0.27498559E+03</rscale>
<asrwt>0</asrwt>
<pdfrwt beam="1">  1        2 0.34948767E+00 0.27498559E+03</pdfrwt>
<pdfrwt beam="2">  1       -2 0.12802693E-02 0.27498559E+03</pdfrwt>
<totfact> 0.79304353E+03</totfact>
</mgrwt>
</event>
<event>
 9    1  0.2098759E-002  0.2839873E+03  0.7818608E-02  0.1093531E+00
          2   -1    0    0  501    0  0.00000000000E+00  0.00000000000E+00  0.82118123459E+03  0.82118123459E+03  0.00000000000E+00 0.  1.
         -2   -1    0    0    0  501 -0.00000000000E+00 -0.00000000000E+00 -0.24552677658E+02  0.24552677658E+02  0.00000000000E+00 0.  1.
         36    2    1    2    0    0 -0.71054273576E-14  0.35527136788E-14  0.79662855694E+03  0.84573391225E+03  0.28398731064E+03 0.  0.
         25    2    3    3    0    0  0.58443459333E+02  0.25789438839E+02  0.32079899334E+03  0.35191291420E+03  0.12980744187E+03 0.  0.
         25    2    3    3    0    0 -0.58443459333E+02 -0.25789438839E+02  0.47582956360E+03  0.49382099805E+03  0.11560567210E+03 0.  0.
          5    1    4    4  502    0  0.19152646939E+01 -0.86801191618E+01 -0.10200937895E+02  0.14323471697E+02  0.47000000000E+01 0.  1.
         -5    1    4    4    0  502  0.56528194639E+02  0.34469558001E+02  0.33099993123E+03  0.33758944251E+03  0.47000000000E+01 0.  1.
          5    1    5    5  503    0 -0.34897384208E+02 -0.56546102292E+02  0.13271169584E+03  0.14849166078E+03  0.47000000000E+01 0.  1.
         -5    1    5    5    0  503 -0.23546075124E+02  0.30756663453E+02  0.34311786776E+03  0.34532933727E+03  0.47000000000E+01 0.  1.
<mgrwt>
<rscale>  0 0.28398731E+03</rscale>
<asrwt>0</asrwt>
<pdfrwt beam="1">  1        2 0.12633555E+00 0.28398731E+03</pdfrwt>
<pdfrwt beam="2">  1       -2 0.37773357E-02 0.28398731E+03</pdfrwt>
<totfact> 0.10259585E+04</totfact>
</mgrwt>
</event>
<event>
 9    1  0.2098759E-002  0.2660267E+03  0.7818608E-02  0.1103575E+00
         -2   -1    0    0    0  501 -0.00000000000E+00  0.00000000000E+00  0.49714764519E+02  0.49714764519E+02  0.00000000000E+00 0.  1.
          2   -1    0    0  501    0  0.00000000000E+00 -0.00000000000E+00 -0.35588115709E+03  0.35588115709E+03  0.00000000000E+00 0.  1.
         36    2    1    2    0    0  0.00000000000E+00 -0.35527136788E-14 -0.30616639257E+03  0.40559592161E+03  0.26602667476E+03 0.  0.
         25    2    3    3    0    0  0.32131093351E+02 -0.55317223788E+01 -0.20188931394E+03  0.23905198177E+03  0.12378831848E+03 0.  0.
         25    2    3    3    0    0 -0.32131093351E+02  0.55317223788E+01 -0.10427707863E+03  0.16654393984E+03  0.12569871780E+03 0.  0.
          5    1    4    4  502    0 -0.24472800726E+02 -0.48512489147E+02 -0.11010262100E+03  0.12287008069E+03  0.47000000000E+01 0.  1.
         -5    1    4    4    0  502  0.56603894077E+02  0.42980766769E+02 -0.91786692942E+02  0.11618190108E+03  0.47000000000E+01 0.  1.
          5    1    5    5  503    0  0.22503090255E+02  0.78577393339E+01  0.19494496030E+02  0.31148972919E+02  0.47000000000E+01 0.  1.
         -5    1    5    5    0  503 -0.54634183607E+02 -0.23260169551E+01 -0.12377157466E+03  0.13539496692E+03  0.47000000000E+01 0.  1.
<mgrwt>
<rscale>  0 0.26602667E+03</rscale>
<asrwt>0</asrwt>
<pdfrwt beam="1">  1        2 0.54750948E-01 0.26602667E+03</pdfrwt>
<pdfrwt beam="2">  1       -2 0.76484253E-02 0.26602667E+03</pdfrwt>
<totfact> 0.91240552E+03</totfact>
</mgrwt>
</event>
<event>
 9    1  0.2098759E-002  0.2753334E+03  0.7818608E-02  0.1098265E+00
         -1   -1    0    0    0  501 -0.00000000000E+00  0.00000000000E+00  0.98383921777E+01  0.98383921777E+01  0.00000000000E+00 0. -1.
          1   -1    0    0  501    0  0.00000000000E+00 -0.00000000000E+00 -0.19263431096E+04  0.19263431096E+04  0.00000000000E+00 0. -1.
         36    2    1    2    0    0  0.00000000000E+00  0.71054273576E-14 -0.19165047174E+04  0.19361815018E+04  0.27533339050E+03 0.  0.
         25    2    3    3    0    0 -0.46424947935E+01 -0.44651624281E+02 -0.12261787000E+04  0.12331705467E+04  0.12320743693E+03 0.  0.
         25    2    3    3    0    0  0.46424947935E+01  0.44651624281E+02 -0.69032601742E+03  0.70301095511E+03  0.12513621527E+03 0.  0.
          5    1    4    4  502    0  0.40981252240E+02 -0.57585539403E+02 -0.45104347551E+03  0.45657186092E+03  0.47000000000E+01 0.  1.
         -5    1    4    4    0  502 -0.45623747034E+02  0.12933915123E+02 -0.77513522448E+03  0.77659868574E+03  0.47000000000E+01 0.  1.
          5    1    5    5  503    0 -0.18372031854E+02 -0.10638260314E+02 -0.54921449883E+03  0.54964475788E+03  0.47000000000E+01 0. -1.
         -5    1    5    5    0  503  0.23014526647E+02  0.55289884594E+02 -0.14111151858E+03  0.15336619723E+03  0.47000000000E+01 0. -1.
<mgrwt>
<rscale>  0 0.27533339E+03</rscale>
<asrwt>0</asrwt>
<pdfrwt beam="1">  1        1 0.29636016E+00 0.27533339E+03</pdfrwt>
<pdfrwt beam="2">  1       -1 0.15136004E-02 0.27533339E+03</pdfrwt>
<totfact> 0.38799548E+03</totfact>
</mgrwt>
</event>
<event>
 9    1  0.2098759E-002  0.2748739E+03  0.7818608E-02  0.1098522E+00
          2   -1    0    0  501    0  0.00000000000E+00  0.00000000000E+00  0.13584162478E+04  0.13584162478E+04  0.00000000000E+00 0. -1.
         -2   -1    0    0    0  501 -0.00000000000E+00 -0.00000000000E+00 -0.13905101390E+02  0.13905101390E+02  0.00000000000E+00 0. -1.
         36    2    1    2    0    0  0.71054273576E-14 -0.35527136788E-14  0.13445111464E+04  0.13723213492E+04  0.27487390313E+03 0.  0.
         25    2    3    3    0    0 -0.55540205754E+02  0.31653158579E+02  0.61239958326E+03  0.62855787816E+03  0.12635315474E+03 0.  0.
         25    2    3    3    0    0  0.55540205754E+02 -0.31653158579E+02  0.73211156319E+03  0.74376347107E+03  0.11449944560E+03 0.  0.
          5    1    4    4  502    0 -0.47591179392E+02  0.73797124134E+02  0.28308021674E+03  0.29642441701E+03  0.47000000000E+01 0. -1.
         -5    1    4    4    0  502 -0.79490263620E+01 -0.42143965555E+02  0.32931936652E+03  0.33213346115E+03  0.47000000000E+01 0. -1.
          5    1    5    5  503    0  0.78046311241E+02 -0.40995151954E+02  0.35414382790E+03  0.36498187629E+03  0.47000000000E+01 0.  1.
         -5    1    5    5    0  503 -0.22506105487E+02  0.93419933752E+01  0.37796773528E+03  0.37878159478E+03  0.47000000000E+01 0.  1.
<mgrwt>
<rscale>  0 0.27487390E+03</rscale>
<asrwt>0</asrwt>
<pdfrwt beam="1">  1        2 0.20898701E+00 0.27487390E+03</pdfrwt>
<pdfrwt beam="2">  1       -2 0.21392474E-02 0.27487390E+03</pdfrwt>
<totfact> 0.11394545E+04</totfact>
</mgrwt>
</event>
<event>
 9    1  0.2098759E-002  0.2748008E+03  0.7818608E-02  0.1098563E+00
          2   -1    0    0  501    0  0.00000000000E+00  0.00000000000E+00  0.71869630633E+02  0.71869630633E+02  0.00000000000E+00 0. -1.
         -2   -1    0    0    0  501 -0.00000000000E+00 -0.00000000000E+00 -0.26268214373E+03  0.26268214373E+03  0.00000000000E+00 0. -1.
         36    2    1    2    0    0  0.00000000000E+00  0.00000000000E+00 -0.19081251310E+03  0.33455177437E+03  0.27480079071E+03 0.  0.
         25    2    3    3    0    0 -0.24347569107E+02  0.34256167268E+02 -0.11429708517E+03  0.17287089692E+03  0.12269569758E+03 0.  0.
         25    2    3    3    0    0  0.24347569107E+02 -0.34256167268E+02 -0.76515427928E+02  0.16168087745E+03  0.13608749504E+03 0.  0.
          5    1    4    4  502    0 -0.57738864258E+02 -0.23719606200E+02 -0.56944143251E+02  0.84623410559E+02  0.47000000000E+01 0. -1.
         -5    1    4    4    0  502  0.33391295151E+02  0.57975773468E+02 -0.57352941922E+02  0.88247486356E+02  0.47000000000E+01 0. -1.
          5    1    5    5  503    0  0.75047451434E+02  0.87970556202E+01 -0.38711134116E+02  0.85030289067E+02  0.47000000000E+01 0.  1.
         -5    1    5    5    0  503 -0.50699882327E+02 -0.43053222889E+02 -0.37804293812E+02  0.76650588384E+02  0.47000000000E+01 0.  1.
<mgrwt>
<rscale>  0 0.27480079E+03</rscale>
<asrwt>0</asrwt>
<pdfrwt beam="1">  1        2 0.11056866E-01 0.27480079E+03</pdfrwt>
<pdfrwt beam="2">  1       -2 0.40412638E-01 0.27480079E+03</pdfrwt>
<totfact> 0.32874434E+03</totfact>
</mgrwt>
</event>
<event>
 9    1  0.2098759E-002  0.2748571E+03  0.7818608E-02  0.1098532E+00
          1   -1    0    0  501    0  0.00000000000E+00  0.00000000000E+00  0.56869452015E+03  0.56869452015E+03  0.00000000000E+00 0.  1.
         -1   -1    0    0    0  501 -0.00000000000E+00 -0.00000000000E+00 -0.33210447469E+02  0.33210447469E+02  0.00000000000E+00 0.  1.
         36    2    1    2    0    0  0.00000000000E+00  0.35527136788E-14  0.53548407268E+03  0.60190496761E+03  0.27485705003E+03 0.  0.
         25    2    3    3    0    0  0.16626906390E+02  0.21632618311E+02  0.37467996805E+03  0.39657302300E+03  0.12704589690E+03 0.  0.
         25    2    3    3    0    0 -0.16626906390E+02 -0.21632618311E+02  0.16080410462E+03  0.20533194462E+03  0.12473501203E+03 0.  0.
          5    1    4    4  502    0 -0.47240105835E+02 -0.15888263583E+02  0.97154028316E+02  0.10929345697E+03  0.47000000000E+01 0.  1.
         -5    1    4    4    0  502  0.63867012225E+02  0.37520881895E+02  0.27752593974E+03  0.28727956602E+03  0.47000000000E+01 0.  1.
          5    1    5    5  503    0  0.43861699526E+02 -0.33157450541E+02  0.35446429328E+02  0.65588143469E+02  0.47000000000E+01 0.  1.
         -5    1    5    5    0  503 -0.60488605916E+02  0.11524832229E+02  0.12535767530E+03  0.13974380115E+03  0.47000000000E+01 0.  1.
<mgrwt>
<rscale>  0 0.27485705E+03</rscale>
<asrwt>0</asrwt>
<pdfrwt beam="1">  1        1 0.87491457E-01 0.27485705E+03</pdfrwt>
<pdfrwt beam="2">  1       -1 0.51093000E-02 0.27485705E+03</pdfrwt>
<totfact> 0.64296984E+03</totfact>
</mgrwt>
</event>
<event>
 9    1  0.2098759E-002  0.2757194E+03  0.7818608E-02  0.1098050E+00
         -1   -1    0    0    0  501 -0.00000000000E+00  0.00000000000E+00  0.10918663853E+03  0.10918663853E+03  0.00000000000E+00 0.  1.
          1   -1    0    0  501    0  0.00000000000E+00 -0.00000000000E+00 -0.17406242934E+03  0.17406242934E+03  0.00000000000E+00 0.  1.
         36    2    1    2    0    0  0.71054273576E-14  0.00000000000E+00 -0.64875790811E+02  0.28324906787E+03  0.27571936133E+03 0.  0.
         25    2    3    3    0    0 -0.15122735884E+02 -0.32103325115E+02  0.17360785963E+02  0.13090640040E+03  0.12480291724E+03 0.  0.
         25    2    3    3    0    0  0.15122735884E+02  0.32103325115E+02 -0.82236576773E+02  0.15234266747E+03  0.12323194857E+03 0.  0.
          5    1    4    4  502    0  0.38403752633E+02 -0.17387835728E+02  0.50604228205E+02  0.66030772824E+02  0.47000000000E+01 0. -1.
         -5    1    4    4    0  502 -0.53526488517E+02 -0.14715489387E+02 -0.33243442242E+02  0.64875627573E+02  0.47000000000E+01 0. -1.
          5    1    5    5  503    0 -0.42263727794E+02  0.27114858686E+02  0.16663917015E+01  0.50460926566E+02  0.47000000000E+01 0.  1.
         -5    1    5    5    0  503  0.57386463678E+02  0.49884664293E+01 -0.83902968475E+02  0.10188174090E+03  0.47000000000E+01 0.  1.
<mgrwt>
<rscale>  0 0.27571936E+03</rscale>
<asrwt>0</asrwt>
<pdfrwt beam="1">  1        1 0.26778835E-01 0.27571936E+03</pdfrwt>
<pdfrwt beam="2">  1       -1 0.16797945E-01 0.27571936E+03</pdfrwt>
<totfact> 0.46615335E+03</totfact>
</mgrwt>
</event>
<event>
 9    1  0.2098759E-002  0.2746848E+03  0.7818608E-02  0.1098628E+00
          1   -1    0    0  501    0  0.00000000000E+00  0.00000000000E+00  0.21178085896E+04  0.21178085896E+04  0.00000000000E+00 0. -1.
         -1   -1    0    0    0  501 -0.00000000000E+00 -0.00000000000E+00 -0.89068204217E+01  0.89068204217E+01  0.00000000000E+00 0. -1.
         36    2    1    2    0    0  0.14210854715E-13  0.00000000000E+00  0.21089017692E+04  0.21267154100E+04  0.27468484338E+03 0.  0.
         25    2    3    3    0    0  0.40375689228E+02 -0.44526832311E+02  0.11058067885E+04  0.11146224999E+04  0.12634013136E+03 0.  0.
         25    2    3    3    0    0 -0.40375689228E+02  0.44526832311E+02  0.10030949807E+04  0.10120929101E+04  0.12049764857E+03 0.  0.
          5    1    4    4  502    0  0.83579201214E+02 -0.22346453823E+02  0.56308322939E+03  0.56971015446E+03  0.47000000000E+01 0. -1.
         -5    1    4    4    0  502 -0.43203511986E+02 -0.22180378489E+02  0.54272355913E+03  0.54491234549E+03  0.47000000000E+01 0. -1.
          5    1    5    5  503    0 -0.69988374335E+02  0.13999300274E+02  0.85368551605E+03  0.85667695385E+03  0.47000000000E+01 0. -1.
         -5    1    5    5    0  503  0.29612685107E+02  0.30527532037E+02  0.14940946462E+03  0.15541595623E+03  0.47000000000E+01 0. -1.
<mgrwt>
<rscale>  0 0.27468484E+03</rscale>
<asrwt>0</asrwt>
<pdfrwt beam="1">  1        1 0.32581630E+00 0.27468484E+03</pdfrwt>
<pdfrwt beam="2">  1       -1 0.13702818E-02 0.27468484E+03</pdfrwt>
<totfact> 0.33672524E+03</totfact>
</mgrwt>
</event>
<event>
 9    1  0.2098759E-002  0.2759169E+03  0.7818608E-02  0.1097940E+00
         -2   -1    0    0    0  501 -0.00000000000E+00  0.00000000000E+00  0.28991563072E+03  0.28991563072E+03  0.00000000000E+00 0. -1.
          2   -1    0    0  501    0  0.00000000000E+00 -0.00000000000E+00 -0.65648522355E+02  0.65648522355E+02  0.00000000000E+00 0. -1.
         36    2    1    2    0    0 -0.71054273576E-14  0.00000000000E+00  0.22426710837E+03  0.35556415308E+03  0.27591689158E+03 0.  0.
         25    2    3    3    0    0 -0.42142596191E+02 -0.16382724743E+02  0.52039424688E+02  0.13698279992E+03  0.11837142252E+03 0.  0.
         25    2    3    3    0    0  0.42142596191E+02  0.16382724743E+02  0.17222768368E+03  0.21858135316E+03  0.12677160896E+03 0.  0.
          5    1    4    4  502    0  0.26872475679E+02 -0.35618869575E+02  0.47046061193E+02  0.65009658457E+02  0.47000000000E+01 0.  1.
         -5    1    4    4    0  502 -0.69015071870E+02  0.19236144832E+02  0.49933634950E+01  0.71973141464E+02  0.47000000000E+01 0.  1.
          5    1    5    5  503    0  0.67369906819E+02  0.53179291060E+02  0.13614421842E+03  0.16100956354E+03  0.47000000000E+01 0.  1.
         -5    1    5    5    0  503 -0.25227310628E+02 -0.36796566317E+02  0.36083465255E+02  0.57571789611E+02  0.47000000000E+01 0.  1.
<mgrwt>
<rscale>  0 0.27591689E+03</rscale>
<asrwt>0</asrwt>
<pdfrwt beam="1">  1        2 0.10099773E-01 0.27591689E+03</pdfrwt>
<pdfrwt beam="2">  1       -2 0.44602404E-01 0.27591689E+03</pdfrwt>
<totfact> 0.30388283E+03</totfact>
</mgrwt>
</event>
<event>
 9    1  0.2098759E-002  0.2744117E+03  0.7818608E-02  0.1098781E+00
          1   -1    0    0  501    0  0.00000000000E+00  0.00000000000E+00  0.58893008099E+03  0.58893008099E+03  0.00000000000E+00 0.  1.
         -1   -1    0    0    0  501 -0.00000000000E+00 -0.00000000000E+00 -0.31965493821E+02  0.31965493821E+02  0.00000000000E+00 0.  1.
         36    2    1    2    0    0  0.00000000000E+00  0.10658141036E-13  0.55696458716E+03  0.62089557481E+03  0.27441166786E+03 0.  0.
         25    2    3    3    0    0  0.41772000085E+02 -0.26206034692E+02  0.39288711298E+03  0.41630142854E+03  0.12851046499E+03 0.  0.
         25    2    3    3    0    0 -0.41772000085E+02  0.26206034692E+02  0.16407747418E+03  0.20459414627E+03  0.11182884649E+03 0.  0.
          5    1    4    4  502    0  0.36966672377E+02  0.64822571893E+01  0.37778050134E+03  0.37966926622E+03  0.47000000000E+01 0. -1.
         -5    1    4    4    0  502  0.48053277078E+01 -0.32688291882E+02  0.15106611647E+02  0.36632162316E+02  0.47000000000E+01 0. -1.
          5    1    5    5  503    0  0.30086260807E+02  0.35347699632E+02  0.86969996466E+02  0.98694038543E+02  0.47000000000E+01 0.  1.
         -5    1    5    5    0  503 -0.71858260892E+02 -0.91416649394E+01  0.77107477715E+02  0.10590010772E+03  0.47000000000E+01 0.  1.
<mgrwt>
<rscale>  0 0.27441167E+03</rscale>
<asrwt>0</asrwt>
<pdfrwt beam="1">  1        1 0.90604620E-01 0.27441167E+03</pdfrwt>
<pdfrwt beam="2">  1       -1 0.49177687E-02 0.27441167E+03</pdfrwt>
<totfact> 0.64885785E+03</totfact>
</mgrwt>
</event>
<event>
 9    1  0.2098759E-002  0.2765061E+03  0.7818608E-02  0.1097613E+00
         -2   -1    0    0    0  501 -0.00000000000E+00  0.00000000000E+00  0.10026228891E+02  0.10026228891E+02  0.00000000000E+00 0.  1.
          2   -1    0    0  501    0  0.00000000000E+00 -0.00000000000E+00 -0.19063904341E+04  0.19063904341E+04  0.00000000000E+00 0.  1.
         36    2    1    2    0    0  0.00000000000E+00  0.71054273576E-14 -0.18963642052E+04  0.19164166630E+04  0.27650610733E+03 0.  0.
         25    2    3    3    0    0 -0.88392875194E+01  0.29024879514E+02 -0.13526107626E+04  0.13579497765E+04  0.11640937939E+03 0.  0.
         25    2    3    3    0    0  0.88392875194E+01 -0.29024879514E+02 -0.54375344260E+03  0.55846688653E+03  0.12368055783E+03 0.  0.
          5    1    4    4  502    0  0.10792136300E+02  0.64740360373E+02 -0.11055039573E+04  0.11074605519E+04  0.47000000000E+01 0.  1.
         -5    1    4    4    0  502 -0.19631423819E+02 -0.35715480860E+02 -0.24710680531E+03  0.25048922452E+03  0.47000000000E+01 0.  1.
          5    1    5    5  503    0  0.46686764144E+01  0.38583098681E+02 -0.36762770713E+03  0.36970619834E+03  0.47000000000E+01 0. -1.
         -5    1    5    5    0  503  0.41706111050E+01 -0.67607978195E+02 -0.17612573547E+03  0.18876068819E+03  0.47000000000E+01 0. -1.
<mgrwt>
<rscale>  0 0.27650611E+03</rscale>
<asrwt>0</asrwt>
<pdfrwt beam="1">  1        2 0.29329072E+00 0.27650611E+03</pdfrwt>
<pdfrwt beam="2">  1       -2 0.15424973E-02 0.27650611E+03</pdfrwt>
<totfact> 0.94242835E+03</totfact>
</mgrwt>
</event>
<event>
 9    1  0.2098759E-002  0.2756354E+03  0.7818608E-02  0.1098097E+00
          3   -1    0    0  501    0  0.00000000000E+00  0.00000000000E+00  0.12872940350E+03  0.12872940350E+03  0.00000000000E+00 0. -1.
         -3   -1    0    0    0  501 -0.00000000000E+00 -0.00000000000E+00 -0.14754762344E+03  0.14754762344E+03  0.00000000000E+00 0. -1.
         36    2    1    2    0    0  0.71054273576E-14  0.00000000000E+00 -0.18818219935E+02  0.27627702694E+03  0.27563539361E+03 0.  0.
         25    2    3    3    0    0 -0.23353071687E+00  0.40273809100E+02  0.54003158420E+02  0.12414864176E+03  0.10428091818E+03 0.  0.
         25    2    3    3    0    0  0.23353071687E+00 -0.40273809100E+02 -0.72821378354E+02  0.15212838518E+03  0.12735014015E+03 0.  0.
          5    1    4    4  502    0 -0.34017095110E+02  0.46345743376E+01  0.64951763040E+02  0.73617005923E+02  0.47000000000E+01 0. -1.
         -5    1    4    4    0  502  0.33783564393E+02  0.35639234762E+02 -0.10948604620E+02  0.50531635840E+02  0.47000000000E+01 0. -1.
          5    1    5    5  503    0 -0.43185035048E+02 -0.25664794663E+01 -0.82833056862E+02  0.93567833031E+02  0.47000000000E+01 0. -1.
         -5    1    5    5    0  503  0.43418565765E+02 -0.37707329633E+02  0.10011678507E+02  0.58560552146E+02  0.47000000000E+01 0. -1.
<mgrwt>
<rscale>  0 0.27563539E+03</rscale>
<asrwt>0</asrwt>
<pdfrwt beam="1">  1        3 0.19804524E-01 0.27563539E+03</pdfrwt>
<pdfrwt beam="2">  1       -3 0.22699634E-01 0.27563539E+03</pdfrwt>
<totfact> 0.10395436E+03</totfact>
</mgrwt>
</event>
<event>
 9    1  0.2098759E-002  0.2633856E+03  0.7818608E-02  0.1105126E+00
         -2   -1    0    0    0  501 -0.00000000000E+00  0.00000000000E+00  0.45313738277E+01  0.45313738277E+01  0.00000000000E+00 0. -1.
          2   -1    0    0  501    0  0.00000000000E+00 -0.00000000000E+00 -0.38273160978E+04  0.38273160978E+04  0.00000000000E+00 0. -1.
         36    2    1    2    0    0 -0.71054273576E-14  0.00000000000E+00 -0.38227847240E+04  0.38318474716E+04  0.26338564878E+03 0.  0.
         25    2    3    3    0    0  0.34351701532E+02  0.45690026981E+01 -0.23066045452E+04  0.23102602110E+04  0.12520702747E+03 0.  0.
         25    2    3    3    0    0 -0.34351701532E+02 -0.45690026981E+01 -0.15161801788E+04  0.15215872606E+04  0.12338777010E+03 0.  0.
          5    1    4    4  502    0  0.29827860449E+02  0.59107654343E+02 -0.83619873542E+03  0.83882884499E+03  0.47000000000E+01 0. -1.
         -5    1    4    4    0  502  0.45238410830E+01 -0.54538651645E+02 -0.14704058097E+04  0.14714313660E+04  0.47000000000E+01 0. -1.
          5    1    5    5  503    0 -0.38397425177E+02 -0.42359625495E+02 -0.13429437960E+04  0.13441684528E+04  0.47000000000E+01 0.  1.
         -5    1    5    5    0  503  0.40457236453E+01  0.37790622797E+02 -0.17323638280E+03  0.17741880784E+03  0.47000000000E+01 0.  1.
<mgrwt>
<rscale>  0 0.26338565E+03</rscale>
<asrwt>0</asrwt>
<pdfrwt beam="1">  1        2 0.58882052E+00 0.26338565E+03</pdfrwt>
<pdfrwt beam="2">  1       -2 0.69713129E-03 0.26338565E+03</pdfrwt>
<totfact> 0.21684630E+03</totfact>
</mgrwt>
</event>
<event>
 9    1  0.2098759E-002  0.2749903E+03  0.7818608E-02  0.1098457E+00
         -2   -1    0    0    0  501 -0.00000000000E+00  0.00000000000E+00  0.90681185090E+01  0.90681185090E+01  0.00000000000E+00 0.  1.
          2   -1    0    0  501    0  0.00000000000E+00 -0.00000000000E+00 -0.20847669878E+04  0.20847669878E+04  0.00000000000E+00 0.  1.
         36    2    1    2    0    0 -0.71054273576E-14  0.00000000000E+00 -0.20756988692E+04  0.20938351063E+04  0.27499028425E+03 0.  0.
         25    2    3    3    0    0  0.29275533411E+02  0.56712822431E+02 -0.11255569768E+04  0.11335402927E+04  0.11815957963E+03 0.  0.
         25    2    3    3    0    0 -0.29275533411E+02 -0.56712822431E+02 -0.95014189249E+03  0.96029481352E+03  0.12378655795E+03 0.  0.
          5    1    4    4  502    0  0.56420101177E+02  0.71436667766E+02 -0.58278281812E+03  0.58986806017E+03  0.47000000000E+01 0. -1.
         -5    1    4    4    0  502 -0.27144567766E+02 -0.14723845334E+02 -0.54277415864E+03  0.54367223257E+03  0.47000000000E+01 0. -1.
          5    1    5    5  503    0  0.48405347452E+02 -0.23179024456E+02 -0.32486264331E+03  0.32929951693E+03  0.47000000000E+01 0.  1.
         -5    1    5    5    0  503 -0.77680880863E+02 -0.33533797976E+02 -0.62527924918E+03  0.63099529658E+03  0.47000000000E+01 0.  1.
<mgrwt>
<rscale>  0 0.27499028E+03</rscale>
<asrwt>0</asrwt>
<pdfrwt beam="1">  1        2 0.32073351E+00 0.27499028E+03</pdfrwt>
<pdfrwt beam="2">  1       -2 0.13950946E-02 0.27499028E+03</pdfrwt>
<totfact> 0.87930766E+03</totfact>
</mgrwt>
</event>
<event>
 9    1  0.2098759E-002  0.2750339E+03  0.7818608E-02  0.1098433E+00
          2   -1    0    0  501    0  0.00000000000E+00  0.00000000000E+00  0.50489548476E+02  0.50489548476E+02  0.00000000000E+00 0.  1.
         -2   -1    0    0    0  501 -0.00000000000E+00 -0.00000000000E+00 -0.37455090453E+03  0.37455090453E+03  0.00000000000E+00 0.  1.
         36    2    1    2    0    0  0.00000000000E+00 -0.35527136788E-14 -0.32406135606E+03  0.42504045301E+03  0.27503386011E+03 0.  0.
         25    2    3    3    0    0  0.73539786543E+01 -0.97377199503E+01 -0.24901445568E+03  0.28012938488E+03  0.12773162858E+03 0.  0.
         25    2    3    3    0    0 -0.73539786543E+01  0.97377199503E+01 -0.75046900373E+02  0.14491106813E+03  0.12336237765E+03 0.  0.
          5    1    4    4  502    0 -0.32967680786E+02  0.41122198683E+02 -0.58860960275E+02  0.79149263075E+02  0.47000000000E+01 0. -1.
         -5    1    4    4    0  502  0.40321659440E+02 -0.50859918633E+02 -0.19015349541E+03  0.20098012180E+03  0.47000000000E+01 0. -1.
          5    1    5    5  503    0 -0.25151747101E+02  0.29706943919E+02  0.21431826620E+02  0.44682503192E+02  0.47000000000E+01 0. -1.
         -5    1    5    5    0  503  0.17797768447E+02 -0.19969223969E+02 -0.96478726993E+02  0.10022856494E+03  0.47000000000E+01 0. -1.
<mgrwt>
<rscale>  0 0.27503386E+03</rscale>
<asrwt>0</asrwt>
<pdfrwt beam="1">  1        2 0.77676228E-02 0.27503386E+03</pdfrwt>
<pdfrwt beam="2">  1       -2 0.57623217E-01 0.27503386E+03</pdfrwt>
<totfact> 0.25323173E+03</totfact>
</mgrwt>
</event>
<event>
 9    1  0.2098759E-002  0.2752678E+03  0.7818608E-02  0.1098302E+00
          2   -1    0    0  501    0  0.00000000000E+00  0.00000000000E+00  0.29204735129E+03  0.29204735129E+03  0.00000000000E+00 0.  1.
         -2   -1    0    0    0  501 -0.00000000000E+00 -0.00000000000E+00 -0.64863094293E+02  0.64863094293E+02  0.00000000000E+00 0.  1.
         36    2    1    2    0    0  0.00000000000E+00  0.00000000000E+00  0.22718425700E+03  0.35691044558E+03  0.27526783237E+03 0.  0.
         25    2    3    3    0    0 -0.84461277781E+01 -0.25633895015E+02  0.19777530766E+03  0.22727589741E+03  0.10867763145E+03 0.  0.
         25    2    3    3    0    0  0.84461277781E+01  0.25633895015E+02  0.29408949340E+02  0.12963454817E+03  0.12333611041E+03 0.  0.
          5    1    4    4  502    0 -0.15076258130E+02 -0.67493885509E+02  0.12455183159E+03  0.14254110597E+03  0.47000000000E+01 0.  1.
         -5    1    4    4    0  502  0.66301303516E+01  0.41859990494E+02  0.73223476071E+02  0.84734791441E+02  0.47000000000E+01 0.  1.
          5    1    5    5  503    0 -0.28109981038E+02  0.64404138057E+02  0.43505458756E+01  0.70562605410E+02  0.47000000000E+01 0.  1.
         -5    1    5    5    0  503  0.36556108816E+02 -0.38770243042E+02  0.25058403465E+02  0.59071942761E+02  0.47000000000E+01 0.  1.
<mgrwt>
<rscale>  0 0.27526783E+03</rscale>
<asrwt>0</asrwt>
<pdfrwt beam="1">  1        2 0.44930361E-01 0.27526783E+03</pdfrwt>
<pdfrwt beam="2">  1       -2 0.99789377E-02 0.27526783E+03</pdfrwt>
<totfact> 0.74400846E+03</totfact>
</mgrwt>
</event>
<event>
 9    1  0.2098759E-002  0.2780238E+03  0.7818608E-02  0.1096773E+00
         -2   -1    0    0    0  501 -0.00000000000E+00  0.00000000000E+00  0.14446443396E+02  0.14446443396E+02  0.00000000000E+00 0. -1.
          2   -1    0    0  501    0  0.00000000000E+00 -0.00000000000E+00 -0.13376520491E+04  0.13376520491E+04  0.00000000000E+00 0. -1.
         36    2    1    2    0    0 -0.71054273576E-14  0.17763568394E-14 -0.13232056057E+04  0.13520984925E+04  0.27802384510E+03 0.  0.
         25    2    3    3    0    0  0.17889677591E+02 -0.28550497800E+01 -0.33398330514E+03  0.35326893954E+03  0.11369214423E+03 0.  0.
         25    2    3    3    0    0 -0.17889677591E+02  0.28550497800E+01 -0.98922230061E+03  0.99882955300E+03  0.13700921154E+03 0.  0.
          5    1    4    4  502    0  0.64111261262E+02 -0.10397628526E+02 -0.15333666313E+03  0.16659107647E+03  0.47000000000E+01 0. -1.
         -5    1    4    4    0  502 -0.46221583672E+02  0.75425787463E+01 -0.18064664201E+03  0.18667786307E+03  0.47000000000E+01 0. -1.
          5    1    5    5  503    0 -0.29792476349E+02 -0.34305389914E+02 -0.11522397648E+03  0.12394799789E+03  0.47000000000E+01 0.  1.
         -5    1    5    5    0  503  0.11902798758E+02  0.37160439694E+02 -0.87399832413E+03  0.87488155511E+03  0.47000000000E+01 0.  1.
<mgrwt>
<rscale>  0 0.27802385E+03</rscale>
<asrwt>0</asrwt>
<pdfrwt beam="1">  1        2 0.20579260E+00 0.27802385E+03</pdfrwt>
<pdfrwt beam="2">  1       -2 0.22225300E-02 0.27802385E+03</pdfrwt>
<totfact> 0.11059649E+04</totfact>
</mgrwt>
</event>
<event>
 9    1  0.2098759E-002  0.2780845E+03  0.7818608E-02  0.1096740E+00
         -1   -1    0    0    0  501 -0.00000000000E+00  0.00000000000E+00  0.56095409905E+03  0.56095409905E+03  0.00000000000E+00 0.  1.
          1   -1    0    0  501    0  0.00000000000E+00 -0.00000000000E+00 -0.34464038190E+02  0.34464038190E+02  0.00000000000E+00 0.  1.
         36    2    1    2    0    0 -0.71054273576E-14  0.00000000000E+00  0.52649006086E+03  0.59541813724E+03  0.27808447272E+03 0.  0.
         25    2    3    3    0    0  0.33709693655E+02  0.17560579842E+02  0.26302071005E+03  0.29690864779E+03  0.13240141165E+03 0.  0.
         25    2    3    3    0    0 -0.33709693655E+02 -0.17560579842E+02  0.26346935081E+03  0.29850948945E+03  0.13508182359E+03 0.  0.
          5    1    4    4  502    0 -0.50256798048E+02 -0.13299283832E+01  0.11546161976E+03  0.12601980042E+03  0.47000000000E+01 0.  1.
         -5    1    4    4    0  502  0.83966491703E+02  0.18890508225E+02  0.14755909030E+03  0.17088884738E+03  0.47000000000E+01 0.  1.
          5    1    5    5  503    0  0.34706641965E+02  0.78339567211E+01  0.19518455050E+03  0.19845659634E+03  0.47000000000E+01 0. -1.
         -5    1    5    5    0  503 -0.68416335620E+02 -0.25394536563E+02  0.68284800303E+02  0.10005289311E+03  0.47000000000E+01 0. -1.
<mgrwt>
<rscale>  0 0.27808447E+03</rscale>
<asrwt>0</asrwt>
<pdfrwt beam="1">  1        1 0.53021601E-02 0.27808447E+03</pdfrwt>
<pdfrwt beam="2">  1       -1 0.86300624E-01 0.27808447E+03</pdfrwt>
<totfact> 0.21302593E+03</totfact>
</mgrwt>
</event>
<event>
 9    1  0.2098759E-002  0.2748152E+03  0.7818608E-02  0.1098555E+00
         -2   -1    0    0    0  501 -0.00000000000E+00  0.00000000000E+00  0.55120306742E+02  0.55120306742E+02  0.00000000000E+00 0.  1.
          2   -1    0    0  501    0  0.00000000000E+00 -0.00000000000E+00 -0.34253895417E+03  0.34253895417E+03  0.00000000000E+00 0.  1.
         36    2    1    2    0    0  0.71054273576E-14  0.00000000000E+00 -0.28741864743E+03  0.39765926091E+03  0.27481522683E+03 0.  0.
         25    2    3    3    0    0  0.17351600393E+02 -0.38670868243E+02 -0.81056871488E+02  0.15270762906E+03  0.12228200796E+03 0.  0.
         25    2    3    3    0    0 -0.17351600393E+02  0.38670868243E+02 -0.20636177594E+03  0.24495163185E+03  0.12497841930E+03 0.  0.
          5    1    4    4  502    0 -0.50765423615E+02 -0.22404597596E+02 -0.18483675855E+02  0.58675638057E+02  0.47000000000E+01 0. -1.
         -5    1    4    4    0  502  0.68117024008E+02 -0.16266270647E+02 -0.62573195633E+02  0.94031991004E+02  0.47000000000E+01 0. -1.
          5    1    5    5  503    0  0.19671996090E+02 -0.77886506993E+01 -0.17735440935E+03  0.17867380062E+03  0.47000000000E+01 0. -1.
         -5    1    5    5    0  503 -0.37023596483E+02  0.46459518942E+02 -0.29007366585E+02  0.66277831234E+02  0.47000000000E+01 0. -1.
<mgrwt>
<rscale>  0 0.27481523E+03</rscale>
<asrwt>0</asrwt>
<pdfrwt beam="1">  1        2 0.52698302E-01 0.27481523E+03</pdfrwt>
<pdfrwt beam="2">  1       -2 0.84800470E-02 0.27481523E+03</pdfrwt>
<totfact> 0.81023773E+03</totfact>
</mgrwt>
</event>
<event>
 9    1  0.2098759E-002  0.2788633E+03  0.7818608E-02  0.1096311E+00
         -1   -1    0    0    0  501 -0.00000000000E+00  0.00000000000E+00  0.28911867200E+02  0.28911867200E+02  0.00000000000E+00 0.  1.
          1   -1    0    0  501    0  0.00000000000E+00 -0.00000000000E+00 -0.67242937291E+03  0.67242937291E+03  0.00000000000E+00 0.  1.
         36    2    1    2    0    0 -0.71054273576E-14 -0.28421709430E-13 -0.64351750571E+03  0.70134124011E+03  0.27886332660E+03 0.  0.
         25    2    3    3    0    0 -0.20638404159E+02 -0.69213896074E+02 -0.39841928800E+03  0.42299758202E+03  0.12236224174E+03 0.  0.
         25    2    3    3    0    0  0.20638404159E+02  0.69213896074E+02 -0.24509821771E+03  0.27834365810E+03  0.11038817211E+03 0.  0.
          5    1    4    4  502    0  0.28637365776E+02 -0.76364895146E+02 -0.31774119097E+03  0.32807506819E+03  0.47000000000E+01 0.  1.
         -5    1    4    4    0  502 -0.49275769935E+02  0.71509990723E+01 -0.80678097028E+02  0.94922513823E+02  0.47000000000E+01 0.  1.
          5    1    5    5  503    0  0.27670029654E+02 -0.19695728500E+02 -0.30451381009E+02  0.45857702380E+02  0.47000000000E+01 0.  1.
         -5    1    5    5    0  503 -0.70316254952E+01  0.88909624573E+02 -0.21464683670E+03  0.23248595572E+03  0.47000000000E+01 0.  1.
<mgrwt>
<rscale>  0 0.27886333E+03</rscale>
<asrwt>0</asrwt>
<pdfrwt beam="1">  1        1 0.10345066E+00 0.27886333E+03</pdfrwt>
<pdfrwt beam="2">  1       -1 0.44479799E-02 0.27886333E+03</pdfrwt>
<totfact> 0.62571105E+03</totfact>
</mgrwt>
</event>
<event>
 9    1  0.2098759E-002  0.2737777E+03  0.7818608E-02  0.1099137E+00
         -1   -1    0    0    0  501 -0.00000000000E+00  0.00000000000E+00  0.21598506822E+02  0.21598506822E+02  0.00000000000E+00 0. -1.
          1   -1    0    0  501    0  0.00000000000E+00 -0.00000000000E+00 -0.86758580562E+03  0.86758580562E+03  0.00000000000E+00 0. -1.
         36    2    1    2    0    0  0.71054273576E-14  0.00000000000E+00 -0.84598729880E+03  0.88918431244E+03  0.27377770502E+03 0.  0.
         25    2    3    3    0    0 -0.38344212189E+02  0.32699853984E+02 -0.49581847425E+03  0.51351115058E+03  0.12376664857E+03 0.  0.
         25    2    3    3    0    0  0.38344212189E+02 -0.32699853984E+02 -0.35016882454E+03  0.37567316186E+03  0.12638259296E+03 0.  0.
          5    1    4    4  502    0 -0.98177104510E+01 -0.35328853585E+02 -0.53321503444E+02  0.64882879588E+02  0.47000000000E+01 0.  1.
         -5    1    4    4    0  502 -0.28526501738E+02  0.68028707569E+02 -0.44249697081E+03  0.44862827099E+03  0.47000000000E+01 0.  1.
          5    1    5    5  503    0  0.46451955529E+02 -0.18366178074E+02 -0.37755147790E+02  0.62790459898E+02  0.47000000000E+01 0. -1.
         -5    1    5    5    0  503 -0.81077433393E+01 -0.14333675910E+02 -0.31241367675E+03  0.31288270197E+03  0.47000000000E+01 0. -1.
<mgrwt>
<rscale>  0 0.27377771E+03</rscale>
<asrwt>0</asrwt>
<pdfrwt beam="1">  1        1 0.13347474E+00 0.27377771E+03</pdfrwt>
<pdfrwt beam="2">  1       -1 0.33228471E-02 0.27377771E+03</pdfrwt>
<totfact> 0.65601655E+03</totfact>
</mgrwt>
</event>
<event>
 9    1  0.2098759E-002  0.2751401E+03  0.7818608E-02  0.1098373E+00
         -1   -1    0    0    0  501 -0.00000000000E+00  0.00000000000E+00  0.38073860600E+03  0.38073860600E+03  0.00000000000E+00 0.  1.
          1   -1    0    0  501    0  0.00000000000E+00 -0.00000000000E+00 -0.49707370436E+02  0.49707370436E+02  0.00000000000E+00 0.  1.
         36    2    1    2    0    0 -0.71054273576E-14 -0.14210854715E-13  0.33103123556E+03  0.43044597643E+03  0.27514007289E+03 0.  0.
         25    2    3    3    0    0 -0.26960160573E+02 -0.77458654385E+02  0.21017996582E+03  0.26013462112E+03  0.12949019143E+03 0.  0.
         25    2    3    3    0    0  0.26960160573E+02  0.77458654385E+02  0.12085126974E+03  0.17031135531E+03  0.87602710875E+02 0.  0.
          5    1    4    4  502    0  0.22760861532E+02 -0.15393078683E+02  0.16741022862E+03  0.16971528610E+03  0.47000000000E+01 0. -1.
         -5    1    4    4    0  502 -0.49721022105E+02 -0.62065575702E+02  0.42769737204E+02  0.90419335027E+02  0.47000000000E+01 0. -1.
          5    1    5    5  503    0  0.46581229418E+02  0.68133321504E+02  0.51293502082E+02  0.97288610789E+02  0.47000000000E+01 0. -1.
         -5    1    5    5    0  503 -0.19621068845E+02  0.93253328806E+01  0.69557767658E+02  0.73022744522E+02  0.47000000000E+01 0. -1.
<mgrwt>
<rscale>  0 0.27514007E+03</rscale>
<asrwt>0</asrwt>
<pdfrwt beam="1">  1        1 0.76472880E-02 0.27514007E+03</pdfrwt>
<pdfrwt beam="2">  1       -1 0.58575168E-01 0.27514007E+03</pdfrwt>
<totfact> 0.28070746E+03</totfact>
</mgrwt>
</event>
<event>
 9    1  0.2098759E-002  0.2747434E+03  0.7818608E-02  0.1098595E+00
          1   -1    0    0  501    0  0.00000000000E+00  0.00000000000E+00  0.50218942147E+03  0.50218942147E+03  0.00000000000E+00 0.  1.
         -1   -1    0    0    0  501 -0.00000000000E+00 -0.00000000000E+00 -0.37577411852E+02  0.37577411852E+02  0.00000000000E+00 0.  1.
         36    2    1    2    0    0  0.00000000000E+00  0.00000000000E+00  0.46461200962E+03  0.53976683332E+03  0.27474336184E+03 0.  0.
         25    2    3    3    0    0 -0.19768664211E+02 -0.55936801711E+02  0.25603579809E+03  0.29086205302E+03  0.12460609179E+03 0.  0.
         25    2    3    3    0    0  0.19768664211E+02  0.55936801711E+02  0.20857621153E+03  0.24890478030E+03  0.12218767439E+03 0.  0.
          5    1    4    4  502    0 -0.17214270555E+02 -0.53954510817E+02  0.29084384737E+02  0.63838951932E+02  0.47000000000E+01 0.  1.
         -5    1    4    4    0  502 -0.25543936559E+01 -0.19822908938E+01  0.22695141335E+03  0.22702310108E+03  0.47000000000E+01 0.  1.
          5    1    5    5  503    0  0.85085764312E+01  0.94610905089E+02  0.14047471772E+03  0.16964331862E+03  0.47000000000E+01 0. -1.
         -5    1    5    5    0  503  0.11260087780E+02 -0.38674103378E+02  0.68101493811E+02  0.79261461684E+02  0.47000000000E+01 0. -1.
<mgrwt>
<rscale>  0 0.27474336E+03</rscale>
<asrwt>0</asrwt>
<pdfrwt beam="1">  1        1 0.77259906E-01 0.27474336E+03</pdfrwt>
<pdfrwt beam="2">  1       -1 0.57811406E-02 0.27474336E+03</pdfrwt>
<totfact> 0.63153820E+03</totfact>
</mgrwt>
</event>
<event>
 9    1  0.2098759E-002  0.2746824E+03  0.7818608E-02  0.1098629E+00
          2   -1    0    0  501    0  0.00000000000E+00  0.00000000000E+00  0.15641914563E+02  0.15641914563E+02  0.00000000000E+00 0. -1.
         -2   -1    0    0    0  501 -0.00000000000E+00 -0.00000000000E+00 -0.12059014726E+04  0.12059014726E+04  0.00000000000E+00 0. -1.
         36    2    1    2    0    0  0.71054273576E-14 -0.71054273576E-14 -0.11902595581E+04  0.12215433872E+04  0.27468241884E+03 0.  0.
         25    2    3    3    0    0  0.14447331150E+00  0.33104689728E+02 -0.40006430355E+03  0.42097663849E+03  0.12678305023E+03 0.  0.
         25    2    3    3    0    0 -0.14447331150E+00 -0.33104689728E+02 -0.79019525451E+03  0.80056674870E+03  0.12410736284E+03 0.  0.
          5    1    4    4  502    0  0.37078303914E+02  0.48882593450E+01 -0.35177497189E+03  0.35378866086E+03  0.47000000000E+01 0. -1.
         -5    1    4    4    0  502 -0.36933830602E+02  0.28216430383E+02 -0.48289331653E+02  0.67187977630E+02  0.47000000000E+01 0. -1.
          5    1    5    5  503    0  0.38659107404E+02  0.17922174586E+02 -0.12249939390E+03  0.12978413783E+03  0.47000000000E+01 0.  1.
         -5    1    5    5    0  503 -0.38803580715E+02 -0.51026864314E+02 -0.66769586061E+03  0.67078261087E+03  0.47000000000E+01 0.  1.
<mgrwt>
<rscale>  0 0.27468242E+03</rscale>
<asrwt>0</asrwt>
<pdfrwt beam="1">  1        2 0.24064478E-02 0.27468242E+03</pdfrwt>
<pdfrwt beam="2">  1       -2 0.18552335E+00 0.27468242E+03</pdfrwt>
<totfact> 0.75843229E+02</totfact>
</mgrwt>
</event>
<event>
 9    1  0.2098759E-002  0.2740662E+03  0.7818608E-02  0.1098975E+00
          2   -1    0    0  501    0  0.00000000000E+00  0.00000000000E+00  0.14496321999E+04  0.14496321999E+04  0.00000000000E+00 0.  1.
         -2   -1    0    0    0  501 -0.00000000000E+00 -0.00000000000E+00 -0.12953683133E+02  0.12953683133E+02  0.00000000000E+00 0.  1.
         36    2    1    2    0    0 -0.35527136788E-14  0.00000000000E+00  0.14366785167E+04  0.14625858830E+04  0.27406624146E+03 0.  0.
         25    2    3    3    0    0  0.10501548242E+02  0.35219578486E+02  0.46568809884E+03  0.48376593584E+03  0.12575123879E+03 0.  0.
         25    2    3    3    0    0 -0.10501548242E+02 -0.35219578486E+02  0.97099041788E+03  0.97881994715E+03  0.11796353711E+03 0.  0.
          5    1    4    4  502    0 -0.54620762773E+01  0.76276120535E+02  0.37608281918E+03  0.38380757904E+03  0.47000000000E+01 0.  1.
         -5    1    4    4    0  502  0.15963624519E+02 -0.41056542050E+02  0.89605279653E+02  0.99958356802E+02  0.47000000000E+01 0.  1.
          5    1    5    5  503    0 -0.25409205305E+02 -0.51291869953E+02  0.21625614094E+03  0.22375274776E+03  0.47000000000E+01 0. -1.
         -5    1    5    5    0  503  0.14907657063E+02  0.16072291467E+02  0.75473427695E+03  0.75506719939E+03  0.47000000000E+01 0. -1.
<mgrwt>
<rscale>  0 0.27406624E+03</rscale>
<asrwt>0</asrwt>
<pdfrwt beam="1">  1        2 0.22302021E+00 0.27406624E+03</pdfrwt>
<pdfrwt beam="2">  1       -2 0.19928755E-02 0.27406624E+03</pdfrwt>
<totfact> 0.11284498E+04</totfact>
</mgrwt>
</event>
<event>
 9    1  0.2098759E-002  0.2753763E+03  0.7818608E-02  0.1098241E+00
          1   -1    0    0  501    0  0.00000000000E+00  0.00000000000E+00  0.98707939607E+02  0.98707939607E+02  0.00000000000E+00 0. -1.
         -1   -1    0    0    0  501 -0.00000000000E+00 -0.00000000000E+00 -0.19206179236E+03  0.19206179236E+03  0.00000000000E+00 0. -1.
         36    2    1    2    0    0 -0.35527136788E-14  0.71054273576E-14 -0.93353852757E+02  0.29076973197E+03  0.27537627931E+03 0.  0.
         25    2    3    3    0    0  0.67386925342E+01 -0.31409684489E+02 -0.11318607859E+03  0.17109361928E+03  0.12421738975E+03 0.  0.
         25    2    3    3    0    0 -0.67386925342E+01  0.31409684489E+02  0.19832225828E+02  0.11967611269E+03  0.11356529625E+03 0.  0.
          5    1    4    4  502    0 -0.43472966573E+02  0.20659919002E+02 -0.18347291696E+02  0.51724696117E+02  0.47000000000E+01 0.  1.
         -5    1    4    4    0  502  0.50211659107E+02 -0.52069603491E+02 -0.94838786889E+02  0.11936892316E+03  0.47000000000E+01 0.  1.
          5    1    5    5  503    0 -0.37616113993E+01  0.73512477259E+02  0.22526992349E+02  0.77121912693E+02  0.47000000000E+01 0. -1.
         -5    1    5    5    0  503 -0.29770811349E+01 -0.42102792770E+02 -0.26947665210E+01  0.42554200001E+02  0.47000000000E+01 0. -1.
<mgrwt>
<rscale>  0 0.27537628E+03</rscale>
<asrwt>0</asrwt>
<pdfrwt beam="1">  1        1 0.15185837E-01 0.27537628E+03</pdfrwt>
<pdfrwt beam="2">  1       -1 0.29547967E-01 0.27537628E+03</pdfrwt>
<totfact> 0.38238712E+03</totfact>
</mgrwt>
</event>
<event>
 9    1  0.2098759E-002  0.2755549E+03  0.7818608E-02  0.1098142E+00
          2   -1    0    0  501    0  0.00000000000E+00  0.00000000000E+00  0.26454194248E+04  0.26454194248E+04  0.00000000000E+00 0. -1.
         -2   -1    0    0    0  501 -0.00000000000E+00 -0.00000000000E+00 -0.71756605600E+01  0.71756605600E+01  0.00000000000E+00 0. -1.
         36    2    1    2    0    0  0.00000000000E+00 -0.71054273576E-14  0.26382437642E+04  0.26525950853E+04  0.27555494429E+03 0.  0.
         25    2    3    3    0    0 -0.65924877200E+01 -0.59597453688E+02  0.15215331460E+04  0.15278545296E+04  0.12522392687E+03 0.  0.
         25    2    3    3    0    0  0.65924877200E+01  0.59597453688E+02  0.11167106182E+04  0.11247405557E+04  0.12001414709E+03 0.  0.
          5    1    4    4  502    0 -0.17384927152E+02  0.33564856054E+02  0.68694969867E+03  0.68800495184E+03  0.47000000000E+01 0. -1.
         -5    1    4    4    0  502  0.10792439432E+02 -0.93162309743E+02  0.83458344737E+03  0.83984957780E+03  0.47000000000E+01 0. -1.
          5    1    5    5  503    0 -0.41282232019E+01  0.29478738640E+02  0.56470787269E+02  0.64008421894E+02  0.47000000000E+01 0. -1.
         -5    1    5    5    0  503  0.10720710922E+02  0.30118715048E+02  0.10602398309E+04  0.10607321338E+04  0.47000000000E+01 0. -1.
<mgrwt>
<rscale>  0 0.27555494E+03</rscale>
<asrwt>0</asrwt>
<pdfrwt beam="1">  1        2 0.40698683E+00 0.27555494E+03</pdfrwt>
<pdfrwt beam="2">  1       -2 0.11039499E-02 0.27555494E+03</pdfrwt>
<totfact> 0.61520328E+03</totfact>
</mgrwt>
</event>
<event>
 9    1  0.2098759E-002  0.2748043E+03  0.7818608E-02  0.1098561E+00
          2   -1    0    0  501    0  0.00000000000E+00  0.00000000000E+00  0.67743967494E+03  0.67743967494E+03  0.00000000000E+00 0. -1.
         -2   -1    0    0    0  501 -0.00000000000E+00 -0.00000000000E+00 -0.27868684402E+02  0.27868684402E+02  0.00000000000E+00 0. -1.
         36    2    1    2    0    0  0.71054273576E-14  0.35527136788E-14  0.64957099054E+03  0.70530835934E+03  0.27480431221E+03 0.  0.
         25    2    3    3    0    0  0.23299692474E+02  0.17216041257E+02  0.21302998771E+03  0.24819783847E+03  0.12402065801E+03 0.  0.
         25    2    3    3    0    0 -0.23299692474E+02 -0.17216041257E+02  0.43654100283E+03  0.45711052087E+03  0.13244890861E+03 0.  0.
          5    1    4    4  502    0  0.24592491665E+02  0.22263957415E+02  0.22864065040E+03  0.23108247762E+03  0.47000000000E+01 0. -1.
         -5    1    4    4    0  502 -0.12927991920E+01 -0.50479161578E+01 -0.15610662695E+02  0.17115360851E+02  0.47000000000E+01 0. -1.
          5    1    5    5  503    0  0.50695133220E+02 -0.31272951875E+02  0.20969291944E+03  0.21803945633E+03  0.47000000000E+01 0.  1.
         -5    1    5    5    0  503 -0.73994825693E+02  0.14056910618E+02  0.22684808338E+03  0.23907106454E+03  0.47000000000E+01 0.  1.
<mgrwt>
<rscale>  0 0.27480431E+03</rscale>
<asrwt>0</asrwt>
<pdfrwt beam="1">  1        2 0.10422148E+00 0.27480431E+03</pdfrwt>
<pdfrwt beam="2">  1       -2 0.42874904E-02 0.27480431E+03</pdfrwt>
<totfact> 0.10755101E+04</totfact>
</mgrwt>
</event>
<event>
 9    1  0.2098759E-002  0.2746902E+03  0.7818608E-02  0.1098625E+00
          1   -1    0    0  501    0  0.00000000000E+00  0.00000000000E+00  0.10873770322E+04  0.10873770322E+04  0.00000000000E+00 0.  1.
         -1   -1    0    0    0  501 -0.00000000000E+00 -0.00000000000E+00 -0.17347867796E+02  0.17347867796E+02  0.00000000000E+00 0.  1.
         36    2    1    2    0    0  0.00000000000E+00  0.71054273576E-14  0.10700291644E+04  0.11047249000E+04  0.27469017455E+03 0.  0.
         25    2    3    3    0    0  0.45357253721E+02  0.36305577209E+02  0.63897254221E+03  0.65220936753E+03  0.11711436291E+03 0.  0.
         25    2    3    3    0    0 -0.45357253721E+02 -0.36305577209E+02  0.43105662217E+03  0.45251553244E+03  0.12484037880E+03 0.  0.
          5    1    4    4  502    0 -0.20560867598E+02 -0.19613328007E+01  0.22040988744E+02  0.30569450233E+02  0.47000000000E+01 0. -1.
         -5    1    4    4    0  502  0.65918121319E+02  0.38266910009E+02  0.61693155346E+03  0.62163991730E+03  0.47000000000E+01 0. -1.
          5    1    5    5  503    0 -0.67655224742E+02  0.44220108531E+01  0.36712164466E+03  0.37335931164E+03  0.47000000000E+01 0. -1.
         -5    1    5    5    0  503  0.22297971022E+02 -0.40727588062E+02  0.63934977517E+02  0.79156220798E+02  0.47000000000E+01 0. -1.
<mgrwt>
<rscale>  0 0.27469017E+03</rscale>
<asrwt>0</asrwt>
<pdfrwt beam="1">  1        1 0.16728872E+00 0.27469017E+03</pdfrwt>
<pdfrwt beam="2">  1       -1 0.26689036E-02 0.27469017E+03</pdfrwt>
<totfact> 0.61766564E+03</totfact>
</mgrwt>
</event>
<event>
 9    1  0.2098759E-002  0.2760611E+03  0.7818608E-02  0.1097860E+00
          2   -1    0    0  501    0  0.00000000000E+00  0.00000000000E+00  0.65527321687E+02  0.65527321687E+02  0.00000000000E+00 0.  1.
         -2   -1    0    0    0  501 -0.00000000000E+00 -0.00000000000E+00 -0.29075545201E+03  0.29075545201E+03  0.00000000000E+00 0.  1.
         36    2    1    2    0    0  0.71054273576E-14  0.00000000000E+00 -0.22522813032E+03  0.35628277370E+03  0.27606105148E+03 0.  0.
         25    2    3    3    0    0  0.24611664460E+02  0.29783068119E+02 -0.55560368317E+02  0.14223645655E+03  0.12510591461E+03 0.  0.
         25    2    3    3    0    0 -0.24611664460E+02 -0.29783068119E+02 -0.16966776201E+03  0.21404631715E+03  0.12464313558E+03 0.  0.
          5    1    4    4  502    0  0.50333407438E+02 -0.33491610472E+02 -0.37975453482E+02  0.71549737550E+02  0.47000000000E+01 0.  1.
         -5    1    4    4    0  502 -0.25721742978E+02  0.63274678591E+02 -0.17584914835E+02  0.70686718996E+02  0.47000000000E+01 0.  1.
          5    1    5    5  503    0 -0.52708641851E+02 -0.54984039478E+02 -0.15593856267E+03  0.17360982360E+03  0.47000000000E+01 0.  1.
         -5    1    5    5    0  503  0.28096977391E+02  0.25200971360E+02 -0.13729199332E+02  0.40436493546E+02  0.47000000000E+01 0.  1.
<mgrwt>
<rscale>  0 0.27606105E+03</rscale>
<asrwt>0</asrwt>
<pdfrwt beam="1">  1        2 0.10081126E-01 0.27606105E+03</pdfrwt>
<pdfrwt beam="2">  1       -2 0.44731608E-01 0.27606105E+03</pdfrwt>
<totfact> 0.30287145E+03</totfact>
</mgrwt>
</event>
<event>
 9    1  0.2098759E-002  0.2756375E+03  0.7818608E-02  0.1098096E+00
          2   -1    0    0  501    0  0.00000000000E+00  0.00000000000E+00  0.13882058096E+04  0.13882058096E+04  0.00000000000E+00 0.  1.
         -2   -1    0    0    0  501 -0.00000000000E+00 -0.00000000000E+00 -0.13682410521E+02  0.13682410521E+02  0.00000000000E+00 0.  1.
         36    2    1    2    0    0  0.71054273576E-14  0.00000000000E+00  0.13745233991E+04  0.14018882201E+04  0.27563745590E+03 0.  0.
         25    2    3    3    0    0  0.32371056475E+02 -0.19068011054E+02  0.44766713271E+03  0.46596267522E+03  0.12370884628E+03 0.  0.
         25    2    3    3    0    0 -0.32371056475E+02  0.19068011054E+02  0.92685626636E+03  0.93592554489E+03  0.12442914749E+03 0.  0.
          5    1    4    4  502    0  0.29123477512E+02 -0.70182557568E+02  0.22879416622E+03  0.24112782673E+03  0.47000000000E+01 0. -1.
         -5    1    4    4    0  502  0.32475789631E+01  0.51114546514E+02  0.21887296649E+03  0.22483484849E+03  0.47000000000E+01 0. -1.
          5    1    5    5  503    0  0.36238972192E+02 -0.25066627780E+02  0.44376149356E+03  0.44596855506E+03  0.47000000000E+01 0. -1.
         -5    1    5    5    0  503 -0.68610028667E+02  0.44134638833E+02  0.48309477279E+03  0.48995698983E+03  0.47000000000E+01 0. -1.
<mgrwt>
<rscale>  0 0.27563746E+03</rscale>
<asrwt>0</asrwt>
<pdfrwt beam="1">  1        2 0.21357001E+00 0.27563746E+03</pdfrwt>
<pdfrwt beam="2">  1       -2 0.21049873E-02 0.27563746E+03</pdfrwt>
<totfact> 0.11240948E+04</totfact>
</mgrwt>
</event>
<event>
 9    1  0.2098759E-002  0.2752465E+03  0.7818608E-02  0.1098314E+00
          1   -1    0    0  501    0  0.00000000000E+00  0.00000000000E+00  0.85955162300E+03  0.85955162300E+03  0.00000000000E+00 0. -1.
         -1   -1    0    0    0  501 -0.00000000000E+00 -0.00000000000E+00 -0.22034930979E+02  0.22034930979E+02  0.00000000000E+00 0. -1.
         36    2    1    2    0    0 -0.71054273576E-14 -0.71054273576E-14  0.83751669202E+03  0.88158655398E+03  0.27524651268E+03 0.  0.
         25    2    3    3    0    0  0.18027350088E+01 -0.41391407946E+02  0.29666363408E+03  0.32500524089E+03  0.12610549679E+03 0.  0.
         25    2    3    3    0    0 -0.18027350088E+01  0.41391407946E+02  0.54085305795E+03  0.55658131309E+03  0.12467649852E+03 0.  0.
          5    1    4    4  502    0 -0.41028419444E+02 -0.33584791630E+02  0.26666453467E+03  0.27192523510E+03  0.47000000000E+01 0. -1.
         -5    1    4    4    0  502  0.42831154453E+02 -0.78066163152E+01  0.29999099401E+02  0.53080005793E+02  0.47000000000E+01 0. -1.
          5    1    5    5  503    0  0.42963671209E+02  0.52970322328E+02  0.44308280620E+03  0.44832599215E+03  0.47000000000E+01 0.  1.
         -5    1    5    5    0  503 -0.44766406217E+02 -0.11578914382E+02  0.97770251753E+02  0.10825532094E+03  0.47000000000E+01 0.  1.
<mgrwt>
<rscale>  0 0.27524651E+03</rscale>
<asrwt>0</asrwt>
<pdfrwt beam="1">  1        1 0.13223869E+00 0.27524651E+03</pdfrwt>
<pdfrwt beam="2">  1       -1 0.33899900E-02 0.27524651E+03</pdfrwt>
<totfact> 0.64648432E+03</totfact>
</mgrwt>
</event>
<event>
 9    1  0.2098759E-002  0.2747977E+03  0.7818608E-02  0.1098565E+00
          2   -1    0    0  501    0  0.00000000000E+00  0.00000000000E+00  0.13692385452E+04  0.13692385452E+04  0.00000000000E+00 0.  1.
         -2   -1    0    0    0  501 -0.00000000000E+00 -0.00000000000E+00 -0.13787545187E+02  0.13787545187E+02  0.00000000000E+00 0.  1.
         36    2    1    2    0    0 -0.35527136788E-14  0.00000000000E+00  0.13554510000E+04  0.13830260904E+04  0.27479765874E+03 0.  0.
         25    2    3    3    0    0  0.23838270580E+02  0.32818495369E+02  0.47384056264E+03  0.49177822921E+03  0.12520236078E+03 0.  0.
         25    2    3    3    0    0 -0.23838270580E+02 -0.32818495369E+02  0.88161043735E+03  0.89124786114E+03  0.12425968765E+03 0.  0.
          5    1    4    4  502    0  0.54920107184E+02 -0.27006184504E+02  0.27499871402E+03  0.28176574470E+03  0.47000000000E+01 0.  1.
         -5    1    4    4    0  502 -0.31081836605E+02  0.59824679873E+02  0.19884184862E+03  0.21001248451E+03  0.47000000000E+01 0.  1.
          5    1    5    5  503    0 -0.79422043017E+01 -0.19333138260E+02  0.19796890433E+02  0.29169431173E+02  0.47000000000E+01 0.  1.
         -5    1    5    5    0  503 -0.15896066278E+02 -0.13485357109E+02  0.86181354691E+03  0.86207842997E+03  0.47000000000E+01 0.  1.
<mgrwt>
<rscale>  0 0.27479766E+03</rscale>
<asrwt>0</asrwt>
<pdfrwt beam="1">  1        2 0.21065198E+00 0.27479766E+03</pdfrwt>
<pdfrwt beam="2">  1       -2 0.21211619E-02 0.27479766E+03</pdfrwt>
<totfact> 0.11381838E+04</totfact>
</mgrwt>
</event>
<event>
 9    1  0.2098759E-002  0.2734536E+03  0.7818608E-02  0.1099319E+00
          1   -1    0    0  501    0  0.00000000000E+00  0.00000000000E+00  0.58748715272E+02  0.58748715272E+02  0.00000000000E+00 0. -1.
         -1   -1    0    0    0  501 -0.00000000000E+00 -0.00000000000E+00 -0.31820639549E+03  0.31820639549E+03  0.00000000000E+00 0. -1.
         36    2    1    2    0    0  0.00000000000E+00  0.00000000000E+00 -0.25945768021E+03  0.37695511076E+03  0.27345359333E+03 0.  0.
         25    2    3    3    0    0 -0.32311953713E+02 -0.23959502786E+02 -0.17126738732E+03  0.22297203046E+03  0.13698864290E+03 0.  0.
         25    2    3    3    0    0  0.32311953713E+02  0.23959502786E+02 -0.88190292891E+02  0.15398308029E+03  0.11964589893E+03 0.  0.
          5    1    4    4  502    0  0.44885419411E+02  0.11889606804E+02 -0.10531410643E+03  0.11519207715E+03  0.47000000000E+01 0.  1.
         -5    1    4    4    0  502 -0.77197373124E+02 -0.35849109590E+02 -0.65953280897E+02  0.10777995332E+03  0.47000000000E+01 0.  1.
          5    1    5    5  503    0  0.57177203924E+02  0.83518705694E+01 -0.10491697026E+03  0.11986929148E+03  0.47000000000E+01 0. -1.
         -5    1    5    5    0  503 -0.24865250211E+02  0.15607632217E+02  0.16726677372E+02  0.34113788816E+02  0.47000000000E+01 0. -1.
<mgrwt>
<rscale>  0 0.27345359E+03</rscale>
<asrwt>0</asrwt>
<pdfrwt beam="1">  1        1 0.90382640E-02 0.27345359E+03</pdfrwt>
<pdfrwt beam="2">  1       -1 0.48954829E-01 0.27345359E+03</pdfrwt>
<totfact> 0.31321909E+03</totfact>
</mgrwt>
</event>
<event>
 9    1  0.2098759E-002  0.2744771E+03  0.7818608E-02  0.1098744E+00
          1   -1    0    0  501    0  0.00000000000E+00  0.00000000000E+00  0.14488073289E+02  0.14488073289E+02  0.00000000000E+00 0. -1.
         -1   -1    0    0    0  501 -0.00000000000E+00 -0.00000000000E+00 -0.12999950285E+04  0.12999950285E+04  0.00000000000E+00 0. -1.
         36    2    1    2    0    0 -0.71054273576E-14  0.00000000000E+00 -0.12855069552E+04  0.13144831018E+04  0.27447712654E+03 0.  0.
         25    2    3    3    0    0 -0.45185071425E+02  0.68647400757E+02 -0.53796758365E+03  0.54971527770E+03  0.77611913855E+02 0.  0.
         25    2    3    3    0    0  0.45185071425E+02 -0.68647400757E+02 -0.74753937156E+03  0.76476782408E+03  0.13892644245E+03 0.  0.
          5    1    4    4  502    0 -0.10987544330E+02  0.63775042113E+02 -0.45669842107E+03  0.46128464090E+03  0.47000000000E+01 0. -1.
         -5    1    4    4    0  502 -0.34197527095E+02  0.48723586442E+01 -0.81269162581E+02  0.88430636800E+02  0.47000000000E+01 0. -1.
          5    1    5    5  503    0  0.94663456559E+02 -0.36098748027E+02 -0.50203343097E+03  0.51217569781E+03  0.47000000000E+01 0. -1.
         -5    1    5    5    0  503 -0.49478385134E+02 -0.32548652730E+02 -0.24550594059E+03  0.25259212627E+03  0.47000000000E+01 0. -1.
<mgrwt>
<rscale>  0 0.27447713E+03</rscale>
<asrwt>0</asrwt>
<pdfrwt beam="1">  1        1 0.22289347E-02 0.27447713E+03</pdfrwt>
<pdfrwt beam="2">  1       -1 0.19999921E+00 0.27447713E+03</pdfrwt>
<totfact> 0.86622220E+02</totfact>
</mgrwt>
</event>
<event>
 9    1  0.2098759E-002  0.2751794E+03  0.7818608E-02  0.1098351E+00
          1   -1    0    0  501    0  0.00000000000E+00  0.00000000000E+00  0.52440914360E+03  0.52440914360E+03  0.00000000000E+00 0. -1.
         -1   -1    0    0    0  501 -0.00000000000E+00 -0.00000000000E+00 -0.36099541849E+02  0.36099541849E+02  0.00000000000E+00 0. -1.
         36    2    1    2    0    0 -0.71054273576E-14  0.00000000000E+00  0.48830960175E+03  0.56050868545E+03  0.27517943110E+03 0.  0.
         25    2    3    3    0    0  0.53344701810E+02 -0.22198880185E+02  0.27534624762E+03  0.30788048364E+03  0.12504554626E+03 0.  0.
         25    2    3    3    0    0 -0.53344701810E+02  0.22198880185E+02  0.21296335413E+03  0.25262820181E+03  0.12300069370E+03 0.  0.
          5    1    4    4  502    0  0.17135249232E+02 -0.35103248824E+02  0.26485063449E+03  0.26775698578E+03  0.47000000000E+01 0. -1.
         -5    1    4    4    0  502  0.36209452578E+02  0.12904368638E+02  0.10495613127E+02  0.40123497864E+02  0.47000000000E+01 0. -1.
          5    1    5    5  503    0 -0.21850789410E+01  0.23954520718E+02 -0.79865454423E+01  0.25777287307E+02  0.47000000000E+01 0. -1.
         -5    1    5    5    0  503 -0.51159622869E+02 -0.17556405322E+01  0.22094989958E+03  0.22685091450E+03  0.47000000000E+01 0. -1.
<mgrwt>
<rscale>  0 0.27517943E+03</rscale>
<asrwt>0</asrwt>
<pdfrwt beam="1">  1        1 0.80678324E-01 0.27517943E+03</pdfrwt>
<pdfrwt beam="2">  1       -1 0.55537760E-02 0.27517943E+03</pdfrwt>
<totfact> 0.63317876E+03</totfact>
</mgrwt>
</event>
<event>
 9    1  0.2098759E-002  0.2742366E+03  0.7818608E-02  0.1098879E+00
          2   -1    0    0  501    0  0.00000000000E+00  0.00000000000E+00  0.55639791783E+02  0.55639791783E+02  0.00000000000E+00 0. -1.
         -2   -1    0    0    0  501 -0.00000000000E+00 -0.00000000000E+00 -0.33791328554E+03  0.33791328554E+03  0.00000000000E+00 0. -1.
         36    2    1    2    0    0  0.71054273576E-14 -0.14210854715E-13 -0.28227349376E+03  0.39355307732E+03  0.27423657559E+03 0.  0.
         25    2    3    3    0    0  0.29960812147E+02 -0.37384337266E+02 -0.10767062170E+03  0.17305001455E+03  0.12672058168E+03 0.  0.
         25    2    3    3    0    0 -0.29960812147E+02  0.37384337266E+02 -0.17460287206E+03  0.22050306278E+03  0.12585785166E+03 0.  0.
          5    1    4    4  502    0  0.79420248923E+02 -0.25020816707E+02 -0.76092604257E+02  0.11289726139E+03  0.47000000000E+01 0. -1.
         -5    1    4    4    0  502 -0.49459436775E+02 -0.12363520559E+02 -0.31578017439E+02  0.60152753155E+02  0.47000000000E+01 0. -1.
          5    1    5    5  503    0 -0.70211286377E+02 -0.28594301693E+00 -0.57084218790E+02  0.90611282592E+02  0.47000000000E+01 0.  1.
         -5    1    5    5    0  503  0.40250474230E+02  0.37670280283E+02 -0.11751865327E+03  0.12989178018E+03  0.47000000000E+01 0.  1.
<mgrwt>
<rscale>  0 0.27423658E+03</rscale>
<asrwt>0</asrwt>
<pdfrwt beam="1">  1        2 0.85599679E-02 0.27423658E+03</pdfrwt>
<pdfrwt beam="2">  1       -2 0.51986660E-01 0.27423658E+03</pdfrwt>
<totfact> 0.27594320E+03</totfact>
</mgrwt>
</event>
<event>
 9    1  0.2098759E-002  0.2755442E+03  0.7818608E-02  0.1098148E+00
          1   -1    0    0  501    0  0.00000000000E+00  0.00000000000E+00  0.31469681204E+04  0.31469681204E+04  0.00000000000E+00 0.  1.
         -1   -1    0    0    0  501 -0.00000000000E+00 -0.00000000000E+00 -0.60315697323E+01  0.60315697323E+01  0.00000000000E+00 0.  1.
         36    2    1    2    0    0  0.00000000000E+00  0.00000000000E+00  0.31409365507E+04  0.31529996902E+04  0.27554424446E+03 0.  0.
         25    2    3    3    0    0  0.13976457970E+02  0.45728696562E+02  0.98476505504E+03  0.99258517141E+03  0.11478960669E+03 0.  0.
         25    2    3    3    0    0 -0.13976457970E+02 -0.45728696562E+02  0.21561714956E+04  0.21604145187E+04  0.12660536755E+03 0.  0.
          5    1    4    4  502    0 -0.36813444863E+02  0.60373290647E+02  0.60273961316E+03  0.60689150201E+03  0.47000000000E+01 0. -1.
         -5    1    4    4    0  502  0.50789902833E+02 -0.14644594085E+02  0.38202544189E+03  0.38569366940E+03  0.47000000000E+01 0. -1.
          5    1    5    5  503    0  0.26004453485E+02  0.94736304067E+01  0.12581480238E+03  0.12890863343E+03  0.47000000000E+01 0. -1.
         -5    1    5    5    0  503 -0.39980911454E+02 -0.55202326969E+02  0.20303566933E+04  0.20315058853E+04  0.47000000000E+01 0. -1.
<mgrwt>
<rscale>  0 0.27554424E+03</rscale>
<asrwt>0</asrwt>
<pdfrwt beam="1">  1        1 0.48414763E+00 0.27554424E+03</pdfrwt>
<pdfrwt beam="2">  1       -1 0.92793632E-03 0.27554424E+03</pdfrwt>
<totfact> 0.11941650E+03</totfact>
</mgrwt>
</event>
<event>
 9    1  0.2098759E-002  0.2752762E+03  0.7818608E-02  0.1098297E+00
         -1   -1    0    0    0  501 -0.00000000000E+00  0.00000000000E+00  0.14597587204E+03  0.14597587204E+03  0.00000000000E+00 0. -1.
          1   -1    0    0  501    0  0.00000000000E+00 -0.00000000000E+00 -0.12977660508E+03  0.12977660508E+03  0.00000000000E+00 0. -1.
         36    2    1    2    0    0  0.35527136788E-14  0.00000000000E+00  0.16199266956E+02  0.27575247711E+03  0.27527624740E+03 0.  0.
         25    2    3    3    0    0  0.11249750118E+02  0.19527577257E+02  0.66314790273E+02  0.14001664082E+03  0.12123994864E+03 0.  0.
         25    2    3    3    0    0 -0.11249750118E+02 -0.19527577257E+02 -0.50115523317E+02  0.13573583630E+03  0.12411594751E+03 0.  0.
          5    1    4    4  502    0  0.63994637191E+02  0.21290038906E+02  0.51539897200E+02  0.85011942392E+02  0.47000000000E+01 0.  1.
         -5    1    4    4    0  502 -0.52744887073E+02 -0.17624616490E+01  0.14774893073E+02  0.55004698424E+02  0.47000000000E+01 0.  1.
          5    1    5    5  503    0  0.14250994666E+02  0.34350191208E+02 -0.64167354521E+02  0.74313968211E+02  0.47000000000E+01 0.  1.
         -5    1    5    5    0  503 -0.25500744784E+02 -0.53877768464E+02  0.14051831204E+02  0.61421868088E+02  0.47000000000E+01 0.  1.
<mgrwt>
<rscale>  0 0.27527625E+03</rscale>
<asrwt>0</asrwt>
<pdfrwt beam="1">  1        1 0.19965632E-01 0.27527625E+03</pdfrwt>
<pdfrwt beam="2">  1       -1 0.22457826E-01 0.27527625E+03</pdfrwt>
<totfact> 0.42362029E+03</totfact>
</mgrwt>
</event>
<event>
 9    1  0.2098759E-002  0.2754989E+03  0.7818608E-02  0.1098173E+00
          2   -1    0    0  501    0  0.00000000000E+00  0.00000000000E+00  0.47555091707E+03  0.47555091707E+03  0.00000000000E+00 0.  1.
         -2   -1    0    0    0  501 -0.00000000000E+00 -0.00000000000E+00 -0.39900916723E+02  0.39900916723E+02  0.00000000000E+00 0.  1.
         36    2    1    2    0    0 -0.35527136788E-14  0.00000000000E+00  0.43565000035E+03  0.51545183379E+03  0.27549894765E+03 0.  0.
         25    2    3    3    0    0 -0.18138871610E+02  0.53493317652E+02  0.24657805044E+03  0.28285029034E+03  0.12654247543E+03 0.  0.
         25    2    3    3    0    0  0.18138871610E+02 -0.53493317652E+02  0.18907194990E+03  0.23260154345E+03  0.12314512609E+03 0.  0.
          5    1    4    4  502    0 -0.35781245231E+02 -0.95042257678E+01  0.19733426995E+03  0.20083209881E+03  0.47000000000E+01 0.  1.
         -5    1    4    4    0  502  0.17642373622E+02  0.62997543420E+02  0.49243780497E+02  0.82018191528E+02  0.47000000000E+01 0.  1.
          5    1    5    5  503    0 -0.10928426696E+02  0.34459628767E+02  0.25251067442E+02  0.44346397055E+02  0.47000000000E+01 0. -1.
         -5    1    5    5    0  503  0.29067298305E+02 -0.87952946419E+02  0.16382088246E+03  0.18825514640E+03  0.47000000000E+01 0. -1.
<mgrwt>
<rscale>  0 0.27549895E+03</rscale>
<asrwt>0</asrwt>
<pdfrwt beam="1">  1        2 0.73161675E-01 0.27549895E+03</pdfrwt>
<pdfrwt beam="2">  1       -2 0.61386029E-02 0.27549895E+03</pdfrwt>
<totfact> 0.93562877E+03</totfact>
</mgrwt>
</event>
<event>
 9    1  0.2098759E-002  0.2753926E+03  0.7818608E-02  0.1098232E+00
          2   -1    0    0  501    0  0.00000000000E+00  0.00000000000E+00  0.59739127580E+03  0.59739127580E+03  0.00000000000E+00 0. -1.
         -2   -1    0    0    0  501 -0.00000000000E+00 -0.00000000000E+00 -0.31738455974E+02  0.31738455974E+02  0.00000000000E+00 0. -1.
         36    2    1    2    0    0  0.35527136788E-14  0.71054273576E-14  0.56565281983E+03  0.62912973178E+03  0.27539264120E+03 0.  0.
         25    2    3    3    0    0 -0.21344013404E+02 -0.51054834523E+02  0.25163206433E+03  0.28649408416E+03  0.12529166543E+03 0.  0.
         25    2    3    3    0    0  0.21344013404E+02  0.51054834523E+02  0.31402075550E+03  0.34263564761E+03  0.12541127976E+03 0.  0.
          5    1    4    4  502    0  0.59839047087E+01 -0.73655153447E+02  0.23620015847E+03  0.24753483312E+03  0.47000000000E+01 0.  1.
         -5    1    4    4    0  502 -0.27327918112E+02  0.22600318924E+02  0.15431905857E+02  0.38959251048E+02  0.47000000000E+01 0.  1.
          5    1    5    5  503    0  0.29050355997E+02  0.77929098924E+02  0.11722104774E+03  0.14380449115E+03  0.47000000000E+01 0.  1.
         -5    1    5    5    0  503 -0.77063425937E+01 -0.26874264401E+02  0.19679970777E+03  0.19883115646E+03  0.47000000000E+01 0.  1.
<mgrwt>
<rscale>  0 0.27539264E+03</rscale>
<asrwt>0</asrwt>
<pdfrwt beam="1">  1        2 0.91906341E-01 0.27539264E+03</pdfrwt>
<pdfrwt beam="2">  1       -2 0.48828398E-02 0.27539264E+03</pdfrwt>
<totfact> 0.10247766E+04</totfact>
</mgrwt>
</event>
<event>
 9    1  0.2098759E-002  0.2746985E+03  0.7818608E-02  0.1098620E+00
         -2   -1    0    0    0  501 -0.00000000000E+00  0.00000000000E+00  0.70975220953E+02  0.70975220953E+02  0.00000000000E+00 0.  1.
          2   -1    0    0  501    0  0.00000000000E+00 -0.00000000000E+00 -0.26579447168E+03  0.26579447168E+03  0.00000000000E+00 0.  1.
         36    2    1    2    0    0  0.00000000000E+00 -0.71054273576E-14 -0.19481925072E+03  0.33676969263E+03  0.27469853553E+03 0.  0.
         25    2    3    3    0    0 -0.22427430308E+02 -0.44116370594E+02 -0.11722712696E+03  0.17808690579E+03  0.12459335028E+03 0.  0.
         25    2    3    3    0    0  0.22427430308E+02  0.44116370594E+02 -0.77592123767E+02  0.15868278684E+03  0.12926888792E+03 0.  0.
          5    1    4    4  502    0  0.40664990188E+02 -0.55048988421E+02 -0.48362061742E+02  0.83934567188E+02  0.47000000000E+01 0.  1.
         -5    1    4    4    0  502 -0.63092420496E+02  0.10932617827E+02 -0.68865065214E+02  0.94152338599E+02  0.47000000000E+01 0.  1.
          5    1    5    5  503    0 -0.40058296968E+02 -0.12077243768E+02 -0.59006378246E+02  0.72487030886E+02  0.47000000000E+01 0. -1.
         -5    1    5    5    0  503  0.62485727276E+02  0.56193614362E+02 -0.18585745521E+02  0.86195755956E+02  0.47000000000E+01 0. -1.
<mgrwt>
<rscale>  0 0.27469854E+03</rscale>
<asrwt>0</asrwt>
<pdfrwt beam="1">  1        2 0.40891456E-01 0.27469854E+03</pdfrwt>
<pdfrwt beam="2">  1       -2 0.10919265E-01 0.27469854E+03</pdfrwt>
<totfact> 0.71313952E+03</totfact>
</mgrwt>
</event>
<event>
 9    1  0.2098759E-002  0.2763394E+03  0.7818608E-02  0.1097705E+00
          4   -1    0    0  501    0  0.00000000000E+00  0.00000000000E+00  0.17815116590E+04  0.17815116590E+04  0.00000000000E+00 0.  1.
         -4   -1    0    0    0  501 -0.00000000000E+00 -0.00000000000E+00 -0.10716104362E+02  0.10716104362E+02  0.00000000000E+00 0.  1.
         36    2    1    2    0    0  0.00000000000E+00 -0.71054273576E-14  0.17707955547E+04  0.17922277634E+04  0.27633939176E+03 0.  0.
         25    2    3    3    0    0 -0.17159676464E+02  0.55433858850E+02  0.10366002724E+04  0.10449739985E+04  0.11858821887E+03 0.  0.
         25    2    3    3    0    0  0.17159676464E+02 -0.55433858850E+02  0.73419528227E+03  0.74725376487E+03  0.12640454658E+03 0.  0.
          5    1    4    4  502    0 -0.15967489445E+02  0.44501696942E+02  0.10304151952E+04  0.10315100224E+04  0.47000000000E+01 0.  1.
         -5    1    4    4    0  502 -0.11921870199E+01  0.10932161908E+02  0.61850771908E+01  0.13463976148E+02  0.47000000000E+01 0.  1.
          5    1    5    5  503    0  0.30700606432E+02 -0.41616829638E+02  0.72208762148E+03  0.72395242305E+03  0.47000000000E+01 0. -1.
         -5    1    5    5    0  503 -0.13540929967E+02 -0.13817029211E+02  0.12107660787E+02  0.23301341814E+02  0.47000000000E+01 0. -1.
<mgrwt>
<rscale>  0 0.27633939E+03</rscale>
<asrwt>0</asrwt>
<pdfrwt beam="1">  1        4 0.27407848E+00 0.27633939E+03</pdfrwt>
<pdfrwt beam="2">  1       -4 0.16486329E-02 0.27633939E+03</pdfrwt>
<totfact> 0.13209443E+02</totfact>
</mgrwt>
</event>
<event>
 9    1  0.2098759E-002  0.2746847E+03  0.7818608E-02  0.1098628E+00
          1   -1    0    0  501    0  0.00000000000E+00  0.00000000000E+00  0.17909134915E+03  0.17909134915E+03  0.00000000000E+00 0.  1.
         -1   -1    0    0    0  501 -0.00000000000E+00 -0.00000000000E+00 -0.10532571868E+03  0.10532571868E+03  0.00000000000E+00 0.  1.
         36    2    1    2    0    0  0.71054273576E-14  0.35527136788E-14  0.73765630473E+02  0.28441706783E+03  0.27468472880E+03 0.  0.
         25    2    3    3    0    0 -0.41331828274E+02 -0.20383401116E+02  0.94913718469E+02  0.14447093308E+03  0.98688568145E+02 0.  0.
         25    2    3    3    0    0  0.41331828274E+02  0.20383401116E+02 -0.21148087996E+02  0.13994613475E+03  0.13043724903E+03 0.  0.
          5    1    4    4  502    0  0.58491766382E+01  0.64688091483E+00 -0.18382661294E+02  0.19865637632E+02  0.47000000000E+01 0.  1.
         -5    1    4    4    0  502 -0.47181004912E+02 -0.21030282031E+02  0.11329637976E+03  0.12460529545E+03  0.47000000000E+01 0.  1.
          5    1    5    5  503    0  0.41977404726E+02 -0.48037652936E+01  0.49230761820E+02  0.65045649954E+02  0.47000000000E+01 0.  1.
         -5    1    5    5    0  503 -0.64557645260E+00  0.25187166410E+02 -0.70378849816E+02  0.74900484793E+02  0.47000000000E+01 0.  1.
<mgrwt>
<rscale>  0 0.27468473E+03</rscale>
<asrwt>0</asrwt>
<pdfrwt beam="1">  1        1 0.27552515E-01 0.27468473E+03</pdfrwt>
<pdfrwt beam="2">  1       -1 0.16203957E-01 0.27468473E+03</pdfrwt>
<totfact> 0.47620268E+03</totfact>
</mgrwt>
</event>
<event>
 9    1  0.2098759E-002  0.2763885E+03  0.7818608E-02  0.1097678E+00
         -2   -1    0    0    0  501 -0.00000000000E+00  0.00000000000E+00  0.55955812481E+03  0.55955812481E+03  0.00000000000E+00 0.  1.
          2   -1    0    0  501    0  0.00000000000E+00 -0.00000000000E+00 -0.34129886547E+02  0.34129886547E+02  0.00000000000E+00 0.  1.
         36    2    1    2    0    0  0.35527136788E-14  0.71054273576E-14  0.52542823827E+03  0.59368801136E+03  0.27638853317E+03 0.  0.
         25    2    3    3    0    0 -0.27587582323E+02  0.26634489129E+02  0.16284755815E+03  0.20819857563E+03  0.12392275412E+03 0.  0.
         25    2    3    3    0    0  0.27587582323E+02 -0.26634489129E+02  0.36258068011E+03  0.38548943573E+03  0.12516742690E+03 0.  0.
          5    1    4    4  502    0  0.58935805820E+01 -0.34084908525E+02  0.44064393083E+01  0.35185536639E+02  0.47000000000E+01 0.  1.
         -5    1    4    4    0  502 -0.33481162905E+02  0.60719397654E+02  0.15844111884E+03  0.17301303899E+03  0.47000000000E+01 0.  1.
          5    1    5    5  503    0 -0.35348411739E+02 -0.50845479125E+02  0.14762995712E+03  0.16016075424E+03  0.47000000000E+01 0.  1.
         -5    1    5    5    0  503  0.62935994062E+02  0.24210989996E+02  0.21495072300E+03  0.22532868149E+03  0.47000000000E+01 0.  1.
<mgrwt>
<rscale>  0 0.27638853E+03</rscale>
<asrwt>0</asrwt>
<pdfrwt beam="1">  1        2 0.52507522E-02 0.27638853E+03</pdfrwt>
<pdfrwt beam="2">  1       -2 0.86085859E-01 0.27638853E+03</pdfrwt>
<totfact> 0.17788140E+03</totfact>
</mgrwt>
</event>
<event>
 9    1  0.2098759E-002  0.2747194E+03  0.7818608E-02  0.1098609E+00
          1   -1    0    0  501    0  0.00000000000E+00  0.00000000000E+00  0.10862445896E+04  0.10862445896E+04  0.00000000000E+00 0. -1.
         -1   -1    0    0    0  501 -0.00000000000E+00 -0.00000000000E+00 -0.17369649198E+02  0.17369649198E+02  0.00000000000E+00 0. -1.
         36    2    1    2    0    0  0.14210854715E-13  0.00000000000E+00  0.10688749404E+04  0.11036142388E+04  0.27471940205E+03 0.  0.
         25    2    3    3    0    0  0.56380297278E+02 -0.11683462521E+02  0.47581269327E+03  0.49507840553E+03  0.12405509796E+03 0.  0.
         25    2    3    3    0    0 -0.56380297278E+02  0.11683462521E+02  0.59306224718E+03  0.60853583331E+03  0.12360335828E+03 0.  0.
          5    1    4    4  502    0  0.36749266065E+02  0.54573818462E+02  0.26926520627E+03  0.27722671503E+03  0.47000000000E+01 0. -1.
         -5    1    4    4    0  502  0.19631031213E+02 -0.66257280983E+02  0.20654748699E+03  0.21785169050E+03  0.47000000000E+01 0. -1.
          5    1    5    5  503    0  0.22608420859E+02  0.43857093023E+02  0.26088526912E+03  0.26555187619E+03  0.47000000000E+01 0. -1.
         -5    1    5    5    0  503 -0.78988718137E+02 -0.32173630502E+02  0.33217697806E+03  0.34298395712E+03  0.47000000000E+01 0. -1.
<mgrwt>
<rscale>  0 0.27471940E+03</rscale>
<asrwt>0</asrwt>
<pdfrwt beam="1">  1        1 0.16711450E+00 0.27471940E+03</pdfrwt>
<pdfrwt beam="2">  1       -1 0.26722546E-02 0.27471940E+03</pdfrwt>
<totfact> 0.61769272E+03</totfact>
</mgrwt>
</event>
<event>
 9    1  0.2098759E-002  0.2751926E+03  0.7818608E-02  0.1098344E+00
          2   -1    0    0  501    0  0.00000000000E+00  0.00000000000E+00  0.54888557730E+03  0.54888557730E+03  0.00000000000E+00 0.  1.
         -2   -1    0    0    0  501 -0.00000000000E+00 -0.00000000000E+00 -0.34493064754E+02  0.34493064754E+02  0.00000000000E+00 0.  1.
         36    2    1    2    0    0  0.71054273576E-14  0.71054273576E-14  0.51439251254E+03  0.58337864205E+03  0.27519262897E+03 0.  0.
         25    2    3    3    0    0 -0.65408548471E+01  0.23170925219E+02  0.34166329404E+03  0.36459728113E+03  0.12497078200E+03 0.  0.
         25    2    3    3    0    0  0.65408548471E+01 -0.23170925219E+02  0.17272921850E+03  0.21878136092E+03  0.13209930509E+03 0.  0.
          5    1    4    4  502    0  0.55769299108E+02  0.24560580766E+02  0.12569999603E+03  0.13977129839E+03  0.47000000000E+01 0.  1.
         -5    1    4    4    0  502 -0.62310153955E+02 -0.13896555461E+01  0.21596329801E+03  0.22482598274E+03  0.47000000000E+01 0.  1.
          5    1    5    5  503    0  0.32939503305E+02 -0.47798462885E+02  0.17282489546E+03  0.18237389732E+03  0.47000000000E+01 0. -1.
         -5    1    5    5    0  503 -0.26398648458E+02  0.24627537666E+02 -0.95676959938E-01  0.36407463602E+02  0.47000000000E+01 0. -1.
<mgrwt>
<rscale>  0 0.27519263E+03</rscale>
<asrwt>0</asrwt>
<pdfrwt beam="1">  1        2 0.84443929E-01 0.27519263E+03</pdfrwt>
<pdfrwt beam="2">  1       -2 0.53066257E-02 0.27519263E+03</pdfrwt>
<totfact> 0.99515425E+03</totfact>
</mgrwt>
</event>
<event>
 9    1  0.2098759E-002  0.2750417E+03  0.7818608E-02  0.1098428E+00
          2   -1    0    0  501    0  0.00000000000E+00  0.00000000000E+00  0.10778341675E+04  0.10778341675E+04  0.00000000000E+00 0. -1.
         -2   -1    0    0    0  501 -0.00000000000E+00 -0.00000000000E+00 -0.17546287008E+02  0.17546287008E+02  0.00000000000E+00 0. -1.
         36    2    1    2    0    0  0.35527136788E-14  0.00000000000E+00  0.10602878805E+04  0.10953804545E+04  0.27504172520E+03 0.  0.
         25    2    3    3    0    0 -0.28017782846E+02 -0.41770067065E+02  0.66253227035E+03  0.67560739148E+03  0.12233807055E+03 0.  0.
         25    2    3    3    0    0  0.28017782846E+02  0.41770067065E+02  0.39775561011E+03  0.41977306299E+03  0.12437911556E+03 0.  0.
          5    1    4    4  502    0 -0.75032931607E+02 -0.13634635201E+02  0.34625419957E+03  0.35458412940E+03  0.47000000000E+01 0. -1.
         -5    1    4    4    0  502  0.47015148761E+02 -0.28135431864E+02  0.31627807078E+03  0.32102326208E+03  0.47000000000E+01 0. -1.
          5    1    5    5  503    0 -0.21020867480E+02  0.24124525487E+02  0.34117403858E+03  0.34270349313E+03  0.47000000000E+01 0. -1.
         -5    1    5    5    0  503  0.49038650325E+02  0.17645541578E+02  0.56581571526E+02  0.77069569868E+02  0.47000000000E+01 0. -1.
<mgrwt>
<rscale>  0 0.27504173E+03</rscale>
<asrwt>0</asrwt>
<pdfrwt beam="1">  1        2 0.16582059E+00 0.27504173E+03</pdfrwt>
<pdfrwt beam="2">  1       -2 0.26994296E-02 0.27504173E+03</pdfrwt>
<totfact> 0.11652205E+04</totfact>
</mgrwt>
</event>
<event>
 9    1  0.2098759E-002  0.2750407E+03  0.7818608E-02  0.1098429E+00
         -2   -1    0    0    0  501 -0.00000000000E+00  0.00000000000E+00  0.59921869828E+01  0.59921869828E+01  0.00000000000E+00 0.  1.
          2   -1    0    0  501    0  0.00000000000E+00 -0.00000000000E+00 -0.31560846863E+04  0.31560846863E+04  0.00000000000E+00 0.  1.
         36    2    1    2    0    0  0.00000000000E+00  0.00000000000E+00 -0.31500924993E+04  0.31620768733E+04  0.27504072116E+03 0.  0.
         25    2    3    3    0    0 -0.50817236720E+02 -0.11636845068E+02 -0.13520070332E+04  0.13590360431E+04  0.12782073688E+03 0.  0.
         25    2    3    3    0    0  0.50817236720E+02  0.11636845068E+02 -0.17980854661E+04  0.18030408302E+04  0.12299221241E+03 0.  0.
          5    1    4    4  502    0 -0.18944295693E+02  0.51758326557E+02 -0.87619189000E+03  0.87793628972E+03  0.47000000000E+01 0. -1.
         -5    1    4    4    0  502 -0.31872941028E+02 -0.63395171625E+02 -0.47581514321E+03  0.48109975334E+03  0.47000000000E+01 0. -1.
          5    1    5    5  503    0  0.66256607500E+02  0.14574475517E+02 -0.47395085975E+03  0.47880461655E+03  0.47000000000E+01 0.  1.
         -5    1    5    5    0  503 -0.15439370779E+02 -0.29376304491E+01 -0.13241346064E+04  0.13242362137E+04  0.47000000000E+01 0.  1.
<mgrwt>
<rscale>  0 0.27504072E+03</rscale>
<asrwt>0</asrwt>
<pdfrwt beam="1">  1        2 0.48555082E+00 0.27504072E+03</pdfrwt>
<pdfrwt beam="2">  1       -2 0.92187619E-03 0.27504072E+03</pdfrwt>
<totfact> 0.40267306E+03</totfact>
</mgrwt>
</event>
<event>
 9    1  0.2098759E-002  0.2756726E+03  0.7818608E-02  0.1098076E+00
         -1   -1    0    0    0  501 -0.00000000000E+00  0.00000000000E+00  0.75011650462E+02  0.75011650462E+02  0.00000000000E+00 0. -1.
          1   -1    0    0  501    0  0.00000000000E+00 -0.00000000000E+00 -0.25327852366E+03  0.25327852366E+03  0.00000000000E+00 0. -1.
         36    2    1    2    0    0 -0.14210854715E-13 -0.35527136788E-14 -0.17826687320E+03  0.32829017412E+03  0.27567256002E+03 0.  0.
         25    2    3    3    0    0  0.27629305844E+02  0.16103113260E+02 -0.25111821308E+02  0.13135926691E+03  0.12490782455E+03 0.  0.
         25    2    3    3    0    0 -0.27629305844E+02 -0.16103113260E+02 -0.15315505189E+03  0.19693090722E+03  0.11959357633E+03 0.  0.
          5    1    4    4  502    0 -0.43286566602E+02 -0.90314349966E+01  0.13752390311E+02  0.46545804382E+02  0.47000000000E+01 0. -1.
         -5    1    4    4    0  502  0.70915872446E+02  0.25134548256E+02 -0.38864211619E+02  0.84813462526E+02  0.47000000000E+01 0. -1.
          5    1    5    5  503    0  0.26645217963E+01 -0.47760649516E+02 -0.14414972390E+03  0.15195200630E+03  0.47000000000E+01 0. -1.
         -5    1    5    5    0  503 -0.30293827640E+02  0.31657536257E+02 -0.90053279871E+01  0.44978900910E+02  0.47000000000E+01 0. -1.
<mgrwt>
<rscale>  0 0.27567256E+03</rscale>
<asrwt>0</asrwt>
<pdfrwt beam="1">  1        1 0.38965927E-01 0.27567256E+03</pdfrwt>
<pdfrwt beam="2">  1       -1 0.11540254E-01 0.27567256E+03</pdfrwt>
<totfact> 0.52562425E+03</totfact>
</mgrwt>
</event>
<event>
 9    1  0.2098759E-002  0.2751812E+03  0.7818608E-02  0.1098350E+00
          4   -1    0    0  501    0  0.00000000000E+00  0.00000000000E+00  0.11130533492E+02  0.11130533492E+02  0.00000000000E+00 0. -1.
         -4   -1    0    0    0  501 -0.00000000000E+00 -0.00000000000E+00 -0.17008323205E+04  0.17008323205E+04  0.00000000000E+00 0. -1.
         36    2    1    2    0    0  0.00000000000E+00 -0.14210854715E-13 -0.16897017870E+04  0.17119628540E+04  0.27518118474E+03 0.  0.
         25    2    3    3    0    0 -0.31283613091E+02  0.53917161792E+02 -0.54763364701E+03  0.56503409428E+03  0.12439932305E+03 0.  0.
         25    2    3    3    0    0  0.31283613091E+02 -0.53917161792E+02 -0.11420681400E+04  0.11469287597E+04  0.85089474537E+02 0.  0.
          5    1    4    4  502    0 -0.22694806489E+02  0.65896392564E+02 -0.13402589677E+03  0.15113708942E+03  0.47000000000E+01 0.  1.
         -5    1    4    4    0  502 -0.85888066025E+01 -0.11979230772E+02 -0.41360775024E+03  0.41389700485E+03  0.47000000000E+01 0.  1.
          5    1    5    5  503    0 -0.15468357316E+02 -0.55381145428E+02 -0.69754123584E+03  0.69992300080E+03  0.47000000000E+01 0.  1.
         -5    1    5    5    0  503  0.46751970408E+02  0.14639836354E+01 -0.44452690418E+03  0.44700575893E+03  0.47000000000E+01 0.  1.
<mgrwt>
<rscale>  0 0.27518118E+03</rscale>
<asrwt>0</asrwt>
<pdfrwt beam="1">  1        4 0.17123902E-02 0.27518118E+03</pdfrwt>
<pdfrwt beam="2">  1       -4 0.26166644E+00 0.27518118E+03</pdfrwt>
<totfact> 0.14737200E+02</totfact>
</mgrwt>
</event>
<event>
 9    1  0.2098759E-002  0.2785910E+03  0.7818608E-02  0.1096461E+00
          4   -1    0    0  501    0  0.00000000000E+00  0.00000000000E+00  0.10376558805E+03  0.10376558805E+03  0.00000000000E+00 0.  1.
         -4   -1    0    0    0  501 -0.00000000000E+00 -0.00000000000E+00 -0.18699109486E+03  0.18699109486E+03  0.00000000000E+00 0.  1.
         36    2    1    2    0    0  0.35527136788E-14  0.00000000000E+00 -0.83225506809E+02  0.29075668291E+03  0.27859103301E+03 0.  0.
         25    2    3    3    0    0  0.22549477290E+02  0.58019483266E+02 -0.63606639856E+02  0.15325357542E+03  0.12476423518E+03 0.  0.
         25    2    3    3    0    0 -0.22549477290E+02 -0.58019483266E+02 -0.19618866952E+02  0.13750310750E+03  0.12102671303E+03 0.  0.
          5    1    4    4  502    0  0.57445327557E+02  0.85434357998E+00 -0.63974507203E+02  0.86113431780E+02  0.47000000000E+01 0.  1.
         -5    1    4    4    0  502 -0.34895850267E+02  0.57165139686E+02  0.36786734653E+00  0.67140143636E+02  0.47000000000E+01 0.  1.
          5    1    5    5  503    0 -0.19583589862E+02 -0.40690113127E+02 -0.70281682757E+02  0.83670826632E+02  0.47000000000E+01 0. -1.
         -5    1    5    5    0  503 -0.29658874284E+01 -0.17329370139E+02  0.50662815805E+02  0.53832280863E+02  0.47000000000E+01 0. -1.
<mgrwt>
<rscale>  0 0.27859103E+03</rscale>
<asrwt>0</asrwt>
<pdfrwt beam="1">  1        4 0.15963937E-01 0.27859103E+03</pdfrwt>
<pdfrwt beam="2">  1       -4 0.28767861E-01 0.27859103E+03</pdfrwt>
<totfact> 0.73044564E+02</totfact>
</mgrwt>
</event>
<event>
 9    1  0.2098759E-002  0.2675113E+03  0.7818608E-02  0.1102712E+00
         -2   -1    0    0    0  501 -0.00000000000E+00  0.00000000000E+00  0.18066637802E+02  0.18066637802E+02  0.00000000000E+00 0. -1.
          2   -1    0    0  501    0  0.00000000000E+00 -0.00000000000E+00 -0.99025510702E+03  0.99025510702E+03  0.00000000000E+00 0. -1.
         36    2    1    2    0    0 -0.17763568394E-14 -0.35527136788E-14 -0.97218846922E+03  0.10083217448E+04  0.26751134817E+03 0.  0.
         25    2    3    3    0    0  0.14256803088E+02  0.22682116181E+02 -0.62280210390E+03  0.63552520707E+03  0.12366120397E+03 0.  0.
         25    2    3    3    0    0 -0.14256803088E+02 -0.22682116181E+02 -0.34938636532E+03  0.37279653775E+03  0.12723478873E+03 0.  0.
          5    1    4    4  502    0  0.53223055122E+02 -0.70307277615E+01 -0.50477492406E+03  0.50764351536E+03  0.47000000000E+01 0. -1.
         -5    1    4    4    0  502 -0.38966252034E+02  0.29712843943E+02 -0.11802717985E+03  0.12788169171E+03  0.47000000000E+01 0. -1.
          5    1    5    5  503    0  0.10132578249E+02 -0.24825103801E+02 -0.52072633739E+01  0.27715708768E+02  0.47000000000E+01 0.  1.
         -5    1    5    5    0  503 -0.24389381336E+02  0.21429876198E+01 -0.34417910194E+03  0.34508082899E+03  0.47000000000E+01 0.  1.
<mgrwt>
<rscale>  0 0.26751135E+03</rscale>
<asrwt>0</asrwt>
<pdfrwt beam="1">  1        2 0.15234696E+00 0.26751135E+03</pdfrwt>
<pdfrwt beam="2">  1       -2 0.27794825E-02 0.26751135E+03</pdfrwt>
<totfact> 0.12589672E+04</totfact>
</mgrwt>
</event>
<event>
 9    1  0.2098759E-002  0.2753339E+03  0.7818608E-02  0.1098265E+00
         -1   -1    0    0    0  501 -0.00000000000E+00  0.00000000000E+00  0.30007633657E+02  0.30007633657E+02  0.00000000000E+00 0. -1.
          1   -1    0    0  501    0  0.00000000000E+00 -0.00000000000E+00 -0.63157900646E+03  0.63157900646E+03  0.00000000000E+00 0. -1.
         36    2    1    2    0    0  0.71054273576E-14 -0.71054273576E-14 -0.60157137280E+03  0.66158664012E+03  0.27533391692E+03 0.  0.
         25    2    3    3    0    0 -0.30727494336E+02  0.57507867342E+02 -0.27854946331E+03  0.30846154918E+03  0.11535766164E+03 0.  0.
         25    2    3    3    0    0  0.30727494336E+02 -0.57507867342E+02 -0.32302190949E+03  0.35312509093E+03  0.12689697443E+03 0.  0.
          5    1    4    4  502    0 -0.30089857904E+02  0.38144625560E+01 -0.68250379723E+01  0.31442341143E+02  0.47000000000E+01 0.  1.
         -5    1    4    4    0  502 -0.63763643253E+00  0.53693404786E+02 -0.27172442534E+03  0.27701920804E+03  0.47000000000E+01 0.  1.
          5    1    5    5  503    0 -0.11156519789E+02  0.20560995299E+02 -0.20017138031E+03  0.20158842714E+03  0.47000000000E+01 0. -1.
         -5    1    5    5    0  503  0.41884014125E+02 -0.78068862641E+02 -0.12285052918E+03  0.15153666379E+03  0.47000000000E+01 0. -1.
<mgrwt>
<rscale>  0 0.27533392E+03</rscale>
<asrwt>0</asrwt>
<pdfrwt beam="1">  1        1 0.97165999E-01 0.27533392E+03</pdfrwt>
<pdfrwt beam="2">  1       -1 0.46165591E-02 0.27533392E+03</pdfrwt>
<totfact> 0.64695859E+03</totfact>
</mgrwt>
</event>
<event>
 9    1  0.2098759E-002  0.2751146E+03  0.7818608E-02  0.1098388E+00
         -2   -1    0    0    0  501 -0.00000000000E+00  0.00000000000E+00  0.59311865357E+01  0.59311865357E+01  0.00000000000E+00 0.  1.
          2   -1    0    0  501    0  0.00000000000E+00 -0.00000000000E+00 -0.31902577200E+04  0.31902577200E+04  0.00000000000E+00 0.  1.
         36    2    1    2    0    0  0.71054273576E-14 -0.21316282073E-13 -0.31843265335E+04  0.31961889066E+04  0.27511462073E+03 0.  0.
         25    2    3    3    0    0  0.11399673650E+02 -0.63962301424E+02 -0.18396526721E+04  0.18450748135E+04  0.12553081265E+03 0.  0.
         25    2    3    3    0    0 -0.11399673650E+02  0.63962301424E+02 -0.13446738614E+04  0.13511140931E+04  0.11463145455E+03 0.  0.
          5    1    4    4  502    0 -0.56958249547E+01 -0.10044570238E+03 -0.12853209610E+04  0.12892609682E+04  0.47000000000E+01 0. -1.
         -5    1    4    4    0  502  0.17095498605E+02  0.36483400954E+02 -0.55433171111E+03  0.55581384524E+03  0.47000000000E+01 0. -1.
          5    1    5    5  503    0 -0.47413873031E+02  0.77383674821E+02 -0.10461458416E+04  0.10500854824E+04  0.47000000000E+01 0. -1.
         -5    1    5    5    0  503  0.36014199380E+02 -0.13421373397E+02 -0.29852801986E+03  0.30102861071E+03  0.47000000000E+01 0. -1.
<mgrwt>
<rscale>  0 0.27511462E+03</rscale>
<asrwt>0</asrwt>
<pdfrwt beam="1">  1        2 0.49081033E+00 0.27511462E+03</pdfrwt>
<pdfrwt beam="2">  1       -2 0.91248755E-03 0.27511462E+03</pdfrwt>
<totfact> 0.38941627E+03</totfact>
</mgrwt>
</event>
<event>
 9    1  0.2098759E-002  0.2744185E+03  0.7818608E-02  0.1098777E+00
         -2   -1    0    0    0  501 -0.00000000000E+00  0.00000000000E+00  0.38826136360E+02  0.38826136360E+02  0.00000000000E+00 0.  1.
          2   -1    0    0  501    0  0.00000000000E+00 -0.00000000000E+00 -0.48488943824E+03  0.48488943824E+03  0.00000000000E+00 0.  1.
         36    2    1    2    0    0  0.00000000000E+00  0.17763568394E-14 -0.44606330188E+03  0.52371557460E+03  0.27441853763E+03 0.  0.
         25    2    3    3    0    0 -0.67724931655E+02 -0.71829049464E+01 -0.25719290046E+03  0.29095996049E+03  0.11777627126E+03 0.  0.
         25    2    3    3    0    0  0.67724931655E+02  0.71829049464E+01 -0.18887040143E+03  0.23275561411E+03  0.11774925425E+03 0.  0.
          5    1    4    4  502    0  0.13527979155E+02  0.33125384750E+02 -0.12832268491E+03  0.13330078319E+03  0.47000000000E+01 0. -1.
         -5    1    4    4    0  502 -0.81252910810E+02 -0.40308289696E+02 -0.12887021555E+03  0.15765917730E+03  0.47000000000E+01 0. -1.
          5    1    5    5  503    0  0.96448384513E+02  0.25984365577E+01 -0.17565360675E+03  0.20046277039E+03  0.47000000000E+01 0.  1.
         -5    1    5    5    0  503 -0.28723452858E+02  0.45844683887E+01 -0.13216794680E+02  0.32292843729E+02  0.47000000000E+01 0.  1.
<mgrwt>
<rscale>  0 0.27441854E+03</rscale>
<asrwt>0</asrwt>
<pdfrwt beam="1">  1        2 0.74598374E-01 0.27441854E+03</pdfrwt>
<pdfrwt beam="2">  1       -2 0.59732519E-02 0.27441854E+03</pdfrwt>
<totfact> 0.95466850E+03</totfact>
</mgrwt>
</event>
<event>
 9    1  0.2098759E-002  0.2747457E+03  0.7818608E-02  0.1098594E+00
         -2   -1    0    0    0  501 -0.00000000000E+00  0.00000000000E+00  0.10829482547E+02  0.10829482547E+02  0.00000000000E+00 0.  1.
          2   -1    0    0  501    0  0.00000000000E+00 -0.00000000000E+00 -0.17425857627E+04  0.17425857627E+04  0.00000000000E+00 0.  1.
         36    2    1    2    0    0  0.00000000000E+00  0.00000000000E+00 -0.17317562801E+04  0.17534152452E+04  0.27474571591E+03 0.  0.
         25    2    3    3    0    0  0.17278302089E+01  0.49550441666E+02 -0.93658413594E+03  0.94627630894E+03  0.12566136046E+03 0.  0.
         25    2    3    3    0    0 -0.17278302089E+01 -0.49550441666E+02 -0.79517214417E+03  0.80713893626E+03  0.12929149969E+03 0.  0.
          5    1    4    4  502    0 -0.18103438721E+02 -0.13528840675E+02 -0.70535435757E+03  0.70573197729E+03  0.47000000000E+01 0. -1.
         -5    1    4    4    0  502  0.19831268930E+02  0.63079282341E+02 -0.23122977837E+03  0.24054433166E+03  0.47000000000E+01 0. -1.
          5    1    5    5  503    0  0.11279645668E+02  0.20415676439E+02 -0.28367813997E+02  0.37025033718E+02  0.47000000000E+01 0.  1.
         -5    1    5    5    0  503 -0.13007475877E+02 -0.69966118105E+02 -0.76680433017E+03  0.77011390254E+03  0.47000000000E+01 0.  1.
<mgrwt>
<rscale>  0 0.27474572E+03</rscale>
<asrwt>0</asrwt>
<pdfrwt beam="1">  1        2 0.26809018E+00 0.27474572E+03</pdfrwt>
<pdfrwt beam="2">  1       -2 0.16660738E-02 0.27474572E+03</pdfrwt>
<totfact> 0.10261275E+04</totfact>
</mgrwt>
</event>
<event>
 9    1  0.2098759E-002  0.2748770E+03  0.7818608E-02  0.1098520E+00
          1   -1    0    0  501    0  0.00000000000E+00  0.00000000000E+00  0.32296300909E+03  0.32296300909E+03  0.00000000000E+00 0. -1.
         -1   -1    0    0    0  501 -0.00000000000E+00 -0.00000000000E+00 -0.58487637814E+02  0.58487637814E+02  0.00000000000E+00 0. -1.
         36    2    1    2    0    0 -0.35527136788E-14 -0.35527136788E-14  0.26447537128E+03  0.38145064691E+03  0.27487701616E+03 0.  0.
         25    2    3    3    0    0 -0.32747171783E+01 -0.24608310745E+01  0.50705535447E+02  0.13461195713E+03  0.12462964421E+03 0.  0.
         25    2    3    3    0    0  0.32747171783E+01  0.24608310745E+01  0.21376983583E+03  0.24683868978E+03  0.12334916537E+03 0.  0.
          5    1    4    4  502    0  0.15891890108E+02  0.19092153650E+02  0.85508281341E+02  0.89167363312E+02  0.47000000000E+01 0. -1.
         -5    1    4    4    0  502 -0.19166607286E+02 -0.21552984725E+02 -0.34802745893E+02  0.45444593816E+02  0.47000000000E+01 0. -1.
          5    1    5    5  503    0  0.58153994288E+02 -0.22949565360E+02  0.11259590979E+03  0.12887396363E+03  0.47000000000E+01 0.  1.
         -5    1    5    5    0  503 -0.54879277110E+02  0.25410396435E+02  0.10117392604E+03  0.11796472614E+03  0.47000000000E+01 0.  1.
<mgrwt>
<rscale>  0 0.27487702E+03</rscale>
<asrwt>0</asrwt>
<pdfrwt beam="1">  1        1 0.49686616E-01 0.27487702E+03</pdfrwt>
<pdfrwt beam="2">  1       -1 0.89980983E-02 0.27487702E+03</pdfrwt>
<totfact> 0.56910079E+03</totfact>
</mgrwt>
</event>
<event>
 9    1  0.2098759E-002  0.2748558E+03  0.7818608E-02  0.1098532E+00
          1   -1    0    0  501    0  0.00000000000E+00  0.00000000000E+00  0.59670762142E+02  0.59670762142E+02  0.00000000000E+00 0.  1.
         -1   -1    0    0    0  501 -0.00000000000E+00 -0.00000000000E+00 -0.31651068666E+03  0.31651068666E+03  0.00000000000E+00 0.  1.
         36    2    1    2    0    0  0.71054273576E-14  0.00000000000E+00 -0.25683992452E+03  0.37618144880E+03  0.27485584512E+03 0.  0.
         25    2    3    3    0    0 -0.52950864084E+02 -0.97752136765E+01 -0.12920907995E+03  0.18824926451E+03  0.12587076880E+03 0.  0.
         25    2    3    3    0    0  0.52950864084E+02  0.97752136765E+01 -0.12763084457E+03  0.18793218429E+03  0.12700206532E+03 0.  0.
          5    1    4    4  502    0 -0.22078719009E+02  0.45719687706E+02 -0.11079147340E+03  0.12196147037E+03  0.47000000000E+01 0. -1.
         -5    1    4    4    0  502 -0.30872145076E+02 -0.55494901383E+02 -0.18417606544E+02  0.66287794139E+02  0.47000000000E+01 0. -1.
          5    1    5    5  503    0  0.78890921895E+02 -0.39993754553E+01 -0.13572294067E+03  0.15710690369E+03  0.47000000000E+01 0. -1.
         -5    1    5    5    0  503 -0.25940057811E+02  0.13774589132E+02  0.80920960992E+01  0.30825280603E+02  0.47000000000E+01 0. -1.
<mgrwt>
<rscale>  0 0.27485585E+03</rscale>
<asrwt>0</asrwt>
<pdfrwt beam="1">  1        1 0.91801170E-02 0.27485585E+03</pdfrwt>
<pdfrwt beam="2">  1       -1 0.48693953E-01 0.27485585E+03</pdfrwt>
<totfact> 0.30977256E+03</totfact>
</mgrwt>
</event>
<event>
 9    1  0.2098759E-002  0.2752847E+03  0.7818608E-02  0.1098293E+00
          2   -1    0    0  501    0  0.00000000000E+00  0.00000000000E+00  0.27526393981E+04  0.27526393981E+04  0.00000000000E+00 0.  1.
         -2   -1    0    0    0  501 -0.00000000000E+00 -0.00000000000E+00 -0.68826366833E+01  0.68826366833E+01  0.00000000000E+00 0.  1.
         36    2    1    2    0    0 -0.71054273576E-14  0.00000000000E+00  0.27457567614E+04  0.27595220347E+04  0.27528470278E+03 0.  0.
         25    2    3    3    0    0 -0.56605538255E+01  0.42739075170E+02  0.16919167090E+04  0.16970911802E+04  0.12521043677E+03 0.  0.
         25    2    3    3    0    0  0.56605538255E+01 -0.42739075170E+02  0.10538400524E+04  0.10624308545E+04  0.12775677739E+03 0.  0.
          5    1    4    4  502    0 -0.53913982708E+02  0.51012806369E+02  0.69632436307E+03  0.70028475105E+03  0.47000000000E+01 0.  1.
         -5    1    4    4    0  502  0.48253428882E+02 -0.82737311988E+01  0.99559234591E+03  0.99680642919E+03  0.47000000000E+01 0.  1.
          5    1    5    5  503    0  0.64914924471E+02 -0.70290191508E+01  0.52280920768E+03  0.52689174615E+03  0.47000000000E+01 0. -1.
         -5    1    5    5    0  503 -0.59254370645E+02 -0.35710056019E+02  0.53103084471E+03  0.53553910835E+03  0.47000000000E+01 0. -1.
<mgrwt>
<rscale>  0 0.27528470E+03</rscale>
<asrwt>0</asrwt>
<pdfrwt beam="1">  1        2 0.42348210E+00 0.27528470E+03</pdfrwt>
<pdfrwt beam="2">  1       -2 0.10588694E-02 0.27528470E+03</pdfrwt>
<totfact> 0.56880986E+03</totfact>
</mgrwt>
</event>
<event>
 9    1  0.2098759E-002  0.2756076E+03  0.7818608E-02  0.1098112E+00
          1   -1    0    0  501    0  0.00000000000E+00  0.00000000000E+00  0.35968245304E+02  0.35968245304E+02  0.00000000000E+00 0.  1.
         -1   -1    0    0    0  501 -0.00000000000E+00 -0.00000000000E+00 -0.52796265624E+03  0.52796265624E+03  0.00000000000E+00 0.  1.
         36    2    1    2    0    0  0.00000000000E+00  0.00000000000E+00 -0.49199441093E+03  0.56393090154E+03  0.27560762204E+03 0.  0.
         25    2    3    3    0    0  0.28810156112E+02 -0.33639228839E+02 -0.21002886396E+03  0.25256590420E+03  0.13310067413E+03 0.  0.
         25    2    3    3    0    0 -0.28810156112E+02  0.33639228839E+02 -0.28196554697E+03  0.31136499735E+03  0.12442656100E+03 0.  0.
          5    1    4    4  502    0 -0.29399273027E+02 -0.49440150151E+02 -0.35282175216E+02  0.67642941904E+02  0.47000000000E+01 0.  1.
         -5    1    4    4    0  502  0.58209429139E+02  0.15800921312E+02 -0.17474668875E+03  0.18492296229E+03  0.47000000000E+01 0.  1.
          5    1    5    5  503    0 -0.25663000727E+02 -0.11371205075E+02 -0.28675926036E+01  0.28604317830E+02  0.47000000000E+01 0. -1.
         -5    1    5    5    0  503 -0.31471553847E+01  0.45010433914E+02 -0.27909795437E+03  0.28276067952E+03  0.47000000000E+01 0. -1.
<mgrwt>
<rscale>  0 0.27560762E+03</rscale>
<asrwt>0</asrwt>
<pdfrwt beam="1">  1        1 0.55335767E-02 0.27560762E+03</pdfrwt>
<pdfrwt beam="2">  1       -1 0.81225017E-01 0.27560762E+03</pdfrwt>
<totfact> 0.22805451E+03</totfact>
</mgrwt>
</event>
<event>
 9    1  0.2098759E-002  0.2749080E+03  0.7818608E-02  0.1098503E+00
         -2   -1    0    0    0  501 -0.00000000000E+00  0.00000000000E+00  0.14699709900E+02  0.14699709900E+02  0.00000000000E+00 0. -1.
          2   -1    0    0  501    0  0.00000000000E+00 -0.00000000000E+00 -0.12853048287E+04  0.12853048287E+04  0.00000000000E+00 0. -1.
         36    2    1    2    0    0  0.00000000000E+00  0.14210854715E-13 -0.12706051188E+04  0.13000045386E+04  0.27490804364E+03 0.  0.
         25    2    3    3    0    0 -0.88092562034E+01 -0.51894420682E+02 -0.51358372066E+03  0.53087866982E+03  0.12366604245E+03 0.  0.
         25    2    3    3    0    0  0.88092562034E+01  0.51894420682E+02 -0.75702139812E+03  0.76912586876E+03  0.12530989939E+03 0.  0.
          5    1    4    4  502    0 -0.10827440436E+02 -0.59002930390E+01 -0.45953612863E+03  0.45972555992E+03  0.47000000000E+01 0.  1.
         -5    1    4    4    0  502  0.20181842327E+01 -0.45994127643E+02 -0.54047592027E+02  0.71153109905E+02  0.47000000000E+01 0.  1.
          5    1    5    5  503    0  0.15574929867E+02  0.46917113075E+02 -0.75784100374E+03  0.75946617495E+03  0.47000000000E+01 0.  1.
         -5    1    5    5    0  503 -0.67656736634E+01  0.49773076068E+01  0.81960561866E+00  0.96596938100E+01  0.47000000000E+01 0.  1.
<mgrwt>
<rscale>  0 0.27490804E+03</rscale>
<asrwt>0</asrwt>
<pdfrwt beam="1">  1        2 0.19773928E+00 0.27490804E+03</pdfrwt>
<pdfrwt beam="2">  1       -2 0.22614930E-02 0.27490804E+03</pdfrwt>
<totfact> 0.11518803E+04</totfact>
</mgrwt>
</event>
<event>
 9    1  0.2098759E-002  0.2754579E+03  0.7818608E-02  0.1098196E+00
         -2   -1    0    0    0  501 -0.00000000000E+00  0.00000000000E+00  0.83476903198E+01  0.83476903198E+01  0.00000000000E+00 0. -1.
          2   -1    0    0  501    0  0.00000000000E+00 -0.00000000000E+00 -0.22723964130E+04  0.22723964130E+04  0.00000000000E+00 0. -1.
         36    2    1    2    0    0 -0.35527136788E-14 -0.35527136788E-14 -0.22640487227E+04  0.22807441033E+04  0.27545788455E+03 0.  0.
         25    2    3    3    0    0  0.21417902044E+02  0.13796938753E+02 -0.15443339739E+04  0.15495634224E+04  0.12462060506E+03 0.  0.
         25    2    3    3    0    0 -0.21417902044E+02 -0.13796938753E+02 -0.71971474883E+03  0.73118068092E+03  0.12643886436E+03 0.  0.
          5    1    4    4  502    0 -0.14121896867E+02  0.25674331982E+02 -0.14017110373E+04  0.14020251501E+04  0.47000000000E+01 0. -1.
         -5    1    4    4    0  502  0.35539798911E+02 -0.11877393229E+02 -0.14262293652E+03  0.14753827232E+03  0.47000000000E+01 0. -1.
          5    1    5    5  503    0 -0.29381897934E+02  0.39722196433E+02 -0.13301913608E+03  0.14197650996E+03  0.47000000000E+01 0.  1.
         -5    1    5    5    0  503  0.79639958901E+01 -0.53519135186E+02 -0.58669561275E+03  0.58920417096E+03  0.47000000000E+01 0.  1.
<mgrwt>
<rscale>  0 0.27545788E+03</rscale>
<asrwt>0</asrwt>
<pdfrwt beam="1">  1        2 0.34960028E+00 0.27545788E+03</pdfrwt>
<pdfrwt beam="2">  1       -2 0.12842570E-02 0.27545788E+03</pdfrwt>
<totfact> 0.78874482E+03</totfact>
</mgrwt>
</event>
<event>
 9    1  0.2098759E-002  0.2717059E+03  0.7818608E-02  0.1100307E+00
         -4   -1    0    0    0  501 -0.00000000000E+00  0.00000000000E+00  0.93734679818E+02  0.93734679818E+02  0.00000000000E+00 0. -1.
          4   -1    0    0  501    0  0.00000000000E+00 -0.00000000000E+00 -0.19689650115E+03  0.19689650115E+03  0.00000000000E+00 0. -1.
         36    2    1    2    0    0  0.00000000000E+00  0.00000000000E+00 -0.10316182133E+03  0.29063118097E+03  0.27170594762E+03 0.  0.
         25    2    3    3    0    0  0.37584130746E+02  0.32278225883E+02 -0.29652988567E+02  0.13794878744E+03  0.12528414694E+03 0.  0.
         25    2    3    3    0    0 -0.37584130746E+02 -0.32278225883E+02 -0.73508832764E+02  0.15268239353E+03  0.12431377257E+03 0.  0.
          5    1    4    4  502    0  0.43483688667E+02 -0.68449622966E+01 -0.68981273135E+02  0.81964569981E+02  0.47000000000E+01 0. -1.
         -5    1    4    4    0  502 -0.58995579212E+01  0.39123188180E+02  0.39328284568E+02  0.55984217455E+02  0.47000000000E+01 0. -1.
          5    1    5    5  503    0  0.67925153373E+01 -0.57100451274E+02  0.61923768459E+01  0.58026160749E+02  0.47000000000E+01 0.  1.
         -5    1    5    5    0  503 -0.44376646083E+02  0.24822225391E+02 -0.79701209610E+02  0.94656232781E+02  0.47000000000E+01 0.  1.
<mgrwt>
<rscale>  0 0.27170595E+03</rscale>
<asrwt>0</asrwt>
<pdfrwt beam="1">  1        4 0.30291769E-01 0.27170595E+03</pdfrwt>
<pdfrwt beam="2">  1       -4 0.14420720E-01 0.27170595E+03</pdfrwt>
<totfact> 0.78934472E+02</totfact>
</mgrwt>
</event>
<event>
 9    1  0.2098759E-002  0.2748421E+03  0.7818608E-02  0.1098540E+00
         -1   -1    0    0    0  501 -0.00000000000E+00  0.00000000000E+00  0.25334218358E+02  0.25334218358E+02  0.00000000000E+00 0. -1.
          1   -1    0    0  501    0  0.00000000000E+00 -0.00000000000E+00 -0.74541670564E+03  0.74541670564E+03  0.00000000000E+00 0. -1.
         36    2    1    2    0    0 -0.17763568394E-14 -0.71054273576E-14 -0.72008248729E+03  0.77075092400E+03  0.27484213351E+03 0.  0.
         25    2    3    3    0    0 -0.17127792340E+01 -0.49404343854E+02 -0.53183236640E+03  0.54859559712E+03  0.12517084494E+03 0.  0.
         25    2    3    3    0    0  0.17127792340E+01  0.49404343854E+02 -0.18825012089E+03  0.22215532688E+03  0.10710349408E+03 0.  0.
          5    1    4    4  502    0 -0.13297062443E+02  0.95640462798E+01 -0.42254361931E+01  0.17556399456E+02  0.47000000000E+01 0.  1.
         -5    1    4    4    0  502  0.11584283209E+02 -0.58968390134E+02 -0.52760693020E+03  0.53103919766E+03  0.47000000000E+01 0.  1.
          5    1    5    5  503    0  0.24000439010E+02 -0.22138357205E+02 -0.10494885839E+03  0.11001127583E+03  0.47000000000E+01 0.  1.
         -5    1    5    5    0  503 -0.22287659776E+02  0.71542701059E+02 -0.83301262504E+02  0.11214405106E+03  0.47000000000E+01 0.  1.
<mgrwt>
<rscale>  0 0.27484213E+03</rscale>
<asrwt>0</asrwt>
<pdfrwt beam="1">  1        1 0.11467949E+00 0.27484213E+03</pdfrwt>
<pdfrwt beam="2">  1       -1 0.38975720E-02 0.27484213E+03</pdfrwt>
<totfact> 0.65467705E+03</totfact>
</mgrwt>
</event>
<event>
 9    1  0.2098759E-002  0.2751209E+03  0.7818608E-02  0.1098384E+00
          2   -1    0    0  501    0  0.00000000000E+00  0.00000000000E+00  0.57488011960E+02  0.57488011960E+02  0.00000000000E+00 0.  1.
         -2   -1    0    0    0  501 -0.00000000000E+00 -0.00000000000E+00 -0.32916217123E+03  0.32916217123E+03  0.00000000000E+00 0.  1.
         36    2    1    2    0    0 -0.35527136788E-14  0.71054273576E-14 -0.27167415927E+03  0.38665018319E+03  0.27512091041E+03 0.  0.
         25    2    3    3    0    0  0.63679103426E+01 -0.16744766931E+02 -0.55668886321E+02  0.13837807875E+03  0.12541343737E+03 0.  0.
         25    2    3    3    0    0 -0.63679103426E+01  0.16744766931E+02 -0.21600527295E+03  0.24827210444E+03  0.12107775352E+03 0.  0.
          5    1    4    4  502    0 -0.25743742135E+02 -0.35679283774E+02  0.23968288429E+02  0.50322166090E+02  0.47000000000E+01 0. -1.
         -5    1    4    4    0  502  0.32111652478E+02  0.18934516843E+02 -0.79637174750E+02  0.88055912664E+02  0.47000000000E+01 0. -1.
          5    1    5    5  503    0  0.16640443058E+02  0.41867239372E+02 -0.20421413296E+02  0.49687968351E+02  0.47000000000E+01 0. -1.
         -5    1    5    5    0  503 -0.23008353401E+02 -0.25122472442E+02 -0.19558385965E+03  0.19858413609E+03  0.47000000000E+01 0. -1.
<mgrwt>
<rscale>  0 0.27512091E+03</rscale>
<asrwt>0</asrwt>
<pdfrwt beam="1">  1        2 0.88443096E-02 0.27512091E+03</pdfrwt>
<pdfrwt beam="2">  1       -2 0.50640334E-01 0.27512091E+03</pdfrwt>
<totfact> 0.27914126E+03</totfact>
</mgrwt>
</event>
<event>
 9    1  0.2098759E-002  0.2826199E+03  0.7818608E-02  0.1094267E+00
          2   -1    0    0  501    0  0.00000000000E+00  0.00000000000E+00  0.26151423553E+02  0.26151423553E+02  0.00000000000E+00 0.  1.
         -2   -1    0    0    0  501 -0.00000000000E+00 -0.00000000000E+00 -0.76357241048E+03  0.76357241048E+03  0.00000000000E+00 0.  1.
         36    2    1    2    0    0  0.14210854715E-13  0.71054273576E-14 -0.73742098693E+03  0.78972383404E+03  0.28261992513E+03 0.  0.
         25    2    3    3    0    0  0.52246538968E+02  0.12382160777E+02 -0.46116083006E+03  0.48177443256E+03  0.12866341338E+03 0.  0.
         25    2    3    3    0    0 -0.52246538968E+02 -0.12382160777E+02 -0.27626015687E+03  0.30794940148E+03  0.12502056174E+03 0.  0.
          5    1    4    4  502    0 -0.12247943340E+02 -0.29693555243E+02 -0.31347907188E+03  0.31515541856E+03  0.47000000000E+01 0. -1.
         -5    1    4    4    0  502  0.64494482308E+02  0.42075716020E+02 -0.14768175818E+03  0.16661901400E+03  0.47000000000E+01 0. -1.
          5    1    5    5  503    0 -0.70659965909E+02 -0.17498308605E+02 -0.27872761232E+03  0.28811489627E+03  0.47000000000E+01 0.  1.
         -5    1    5    5    0  503  0.18413426942E+02  0.51161478279E+01  0.24674554493E+01  0.19834505205E+02  0.47000000000E+01 0.  1.
<mgrwt>
<rscale>  0 0.28261993E+03</rscale>
<asrwt>0</asrwt>
<pdfrwt beam="1">  1        2 0.40232961E-02 0.28261993E+03</pdfrwt>
<pdfrwt beam="2">  1       -2 0.11747267E+00 0.28261993E+03</pdfrwt>
<totfact> 0.12308791E+03</totfact>
</mgrwt>
</event>
<event>
 9    1  0.2098759E-002  0.2741924E+03  0.7818608E-02  0.1098904E+00
          2   -1    0    0  501    0  0.00000000000E+00  0.00000000000E+00  0.22728003249E+04  0.22728003249E+04  0.00000000000E+00 0. -1.
         -2   -1    0    0    0  501 -0.00000000000E+00 -0.00000000000E+00 -0.82696981999E+01  0.82696981999E+01  0.00000000000E+00 0. -1.
         36    2    1    2    0    0  0.00000000000E+00 -0.35527136788E-14  0.22645306267E+04  0.22810700231E+04  0.27419243429E+03 0.  0.
         25    2    3    3    0    0  0.57364408000E+02  0.55019023490E+01  0.10072272632E+04  0.10164619847E+04  0.12396475421E+03 0.  0.
         25    2    3    3    0    0 -0.57364408000E+02 -0.55019023490E+01  0.12573033635E+04  0.12646080384E+04  0.12288529932E+03 0.  0.
          5    1    4    4  502    0  0.85350886593E+00  0.28863895767E+02  0.79532620683E+03  0.79586413302E+03  0.47000000000E+01 0. -1.
         -5    1    4    4    0  502  0.56510899134E+02 -0.23361993418E+02  0.21190105640E+03  0.22059785167E+03  0.47000000000E+01 0. -1.
          5    1    5    5  503    0 -0.67579780961E+02 -0.24292704458E+02  0.12135359551E+04  0.12156680331E+04  0.47000000000E+01 0. -1.
         -5    1    5    5    0  503  0.10215372961E+02  0.18790802109E+02  0.43767408395E+02  0.48940005376E+02  0.47000000000E+01 0. -1.
<mgrwt>
<rscale>  0 0.27419243E+03</rscale>
<asrwt>0</asrwt>
<pdfrwt beam="1">  1        2 0.34966109E+00 0.27419243E+03</pdfrwt>
<pdfrwt beam="2">  1       -2 0.12722631E-02 0.27419243E+03</pdfrwt>
<totfact> 0.79921747E+03</totfact>
</mgrwt>
</event>
<event>
 9    1  0.2098759E-002  0.2763295E+03  0.7818608E-02  0.1097711E+00
         -1   -1    0    0    0  501 -0.00000000000E+00  0.00000000000E+00  0.62477709031E+03  0.62477709031E+03  0.00000000000E+00 0. -1.
          1   -1    0    0  501    0  0.00000000000E+00 -0.00000000000E+00 -0.30554085777E+02  0.30554085777E+02  0.00000000000E+00 0. -1.
         36    2    1    2    0    0  0.00000000000E+00  0.00000000000E+00  0.59422300453E+03  0.65533117608E+03  0.27632946139E+03 0.  0.
         25    2    3    3    0    0 -0.33111175454E+02  0.26460217088E+02  0.20460811392E+03  0.24430599715E+03  0.12658770450E+03 0.  0.
         25    2    3    3    0    0  0.33111175454E+02 -0.26460217088E+02  0.38961489061E+03  0.41102517894E+03  0.12387671979E+03 0.  0.
          5    1    4    4  502    0  0.78955877743E+01 -0.97419343815E+01 -0.13725023289E+02  0.19175814353E+02  0.47000000000E+01 0. -1.
         -5    1    4    4    0  502 -0.41006763228E+02  0.36202151470E+02  0.21833313721E+03  0.22513018279E+03  0.47000000000E+01 0. -1.
          5    1    5    5  503    0 -0.14736785276E+02  0.31639614564E+02  0.24887198653E+03  0.25135153417E+03  0.47000000000E+01 0.  1.
         -5    1    5    5    0  503  0.47847960730E+02 -0.58099831652E+02  0.14074290408E+03  0.15967364476E+03  0.47000000000E+01 0.  1.
<mgrwt>
<rscale>  0 0.27632946E+03</rscale>
<asrwt>0</asrwt>
<pdfrwt beam="1">  1        1 0.47006290E-02 0.27632946E+03</pdfrwt>
<pdfrwt beam="2">  1       -1 0.96119543E-01 0.27632946E+03</pdfrwt>
<totfact> 0.19946677E+03</totfact>
</mgrwt>
</event>
<event>
 9    1  0.2098759E-002  0.2709351E+03  0.7818608E-02  0.1100746E+00
          1   -1    0    0  501    0  0.00000000000E+00  0.00000000000E+00  0.13359404175E+03  0.13359404175E+03  0.00000000000E+00 0. -1.
         -1   -1    0    0    0  501 -0.00000000000E+00 -0.00000000000E+00 -0.13736736761E+03  0.13736736761E+03  0.00000000000E+00 0. -1.
         36    2    1    2    0    0 -0.14210854715E-13 -0.17763568394E-14 -0.37733258693E+01  0.27096140936E+03  0.27093513499E+03 0.  0.
         25    2    3    3    0    0 -0.52308744534E+02 -0.17434798066E+01  0.41147954720E+01  0.13601055279E+03  0.12546989460E+03 0.  0.
         25    2    3    3    0    0  0.52308744534E+02  0.17434798066E+01 -0.78881213413E+01  0.13495085657E+03  0.12413809550E+03 0.  0.
          5    1    4    4  502    0 -0.43189372278E+02  0.34169712256E+01 -0.58165947107E+02  0.72679880111E+02  0.47000000000E+01 0.  1.
         -5    1    4    4    0  502 -0.91193722556E+01 -0.51604510323E+01  0.62280742579E+02  0.63330672675E+02  0.47000000000E+01 0.  1.
          5    1    5    5  503    0 -0.14652518063E+02 -0.30435593513E+02 -0.41125822869E+02  0.53427005763E+02  0.47000000000E+01 0. -1.
         -5    1    5    5    0  503  0.66961262597E+02  0.32179073320E+02  0.33237701528E+02  0.81523850811E+02  0.47000000000E+01 0. -1.
<mgrwt>
<rscale>  0 0.27093513E+03</rscale>
<asrwt>0</asrwt>
<pdfrwt beam="1">  1        1 0.20552930E-01 0.27093513E+03</pdfrwt>
<pdfrwt beam="2">  1       -1 0.21133441E-01 0.27093513E+03</pdfrwt>
<totfact> 0.45063044E+03</totfact>
</mgrwt>
</event>
<event>
 9    1  0.2098759E-002  0.2741993E+03  0.7818608E-02  0.1098900E+00
         -1   -1    0    0    0  501 -0.00000000000E+00  0.00000000000E+00  0.65036251591E+01  0.65036251591E+01  0.00000000000E+00 0. -1.
          1   -1    0    0  501    0  0.00000000000E+00 -0.00000000000E+00 -0.28901279287E+04  0.28901279287E+04  0.00000000000E+00 0. -1.
         36    2    1    2    0    0  0.71054273576E-14  0.00000000000E+00 -0.28836243035E+04  0.28966315538E+04  0.27419926119E+03 0.  0.
         25    2    3    3    0    0 -0.33547598871E+02 -0.21470486202E+02 -0.18516466126E+04  0.18563949413E+04  0.12657241723E+03 0.  0.
         25    2    3    3    0    0  0.33547598871E+02  0.21470486202E+02 -0.10319776909E+04  0.10402366125E+04  0.12461072357E+03 0.  0.
          5    1    4    4  502    0 -0.32098355108E+02 -0.54859898774E+00 -0.11172905116E+03  0.11634464420E+03  0.47000000000E+01 0. -1.
         -5    1    4    4    0  502 -0.14492437625E+01 -0.20921887214E+02 -0.17399175615E+04  0.17400502971E+04  0.47000000000E+01 0. -1.
          5    1    5    5  503    0  0.59410252964E+02  0.51261102012E+02 -0.44299614947E+03  0.44991661136E+03  0.47000000000E+01 0. -1.
         -5    1    5    5    0  503 -0.25862654093E+02 -0.29790615811E+02 -0.58898154141E+03  0.59032000118E+03  0.47000000000E+01 0. -1.
<mgrwt>
<rscale>  0 0.27419926E+03</rscale>
<asrwt>0</asrwt>
<pdfrwt beam="1">  1        1 0.44463469E+00 0.27419926E+03</pdfrwt>
<pdfrwt beam="2">  1       -1 0.10005586E-02 0.27419926E+03</pdfrwt>
<totfact> 0.16221620E+03</totfact>
</mgrwt>
</event>
<event>
 9    1  0.2098759E-002  0.2748001E+03  0.7818608E-02  0.1098563E+00
          1   -1    0    0  501    0  0.00000000000E+00  0.00000000000E+00  0.53082031279E+02  0.53082031279E+02  0.00000000000E+00 0. -1.
         -1   -1    0    0    0  501 -0.00000000000E+00 -0.00000000000E+00 -0.35565289254E+03  0.35565289254E+03  0.00000000000E+00 0. -1.
         36    2    1    2    0    0  0.00000000000E+00  0.71054273576E-14 -0.30257086126E+03  0.40873492382E+03  0.27480013076E+03 0.  0.
         25    2    3    3    0    0 -0.22718865867E+02 -0.41102570578E+02 -0.10609528820E+03  0.17178439930E+03  0.12668110154E+03 0.  0.
         25    2    3    3    0    0  0.22718865867E+02  0.41102570578E+02 -0.19647557306E+03  0.23695052452E+03  0.12384398285E+03 0.  0.
          5    1    4    4  502    0 -0.73279101316E+02 -0.24094597819E+02 -0.83169288860E+02  0.11353236078E+03  0.47000000000E+01 0.  1.
         -5    1    4    4    0  502  0.50560235449E+02 -0.17007972759E+02 -0.22925999342E+02  0.58252038521E+02  0.47000000000E+01 0.  1.
          5    1    5    5  503    0  0.35138002269E+01  0.54297209708E+02 -0.20465169821E+03  0.21181345886E+03  0.47000000000E+01 0. -1.
         -5    1    5    5    0  503  0.19205065640E+02 -0.13194639130E+02  0.81761251455E+01  0.25137065668E+02  0.47000000000E+01 0. -1.
<mgrwt>
<rscale>  0 0.27480013E+03</rscale>
<asrwt>0</asrwt>
<pdfrwt beam="1">  1        1 0.81664665E-02 0.27480013E+03</pdfrwt>
<pdfrwt beam="2">  1       -1 0.54715828E-01 0.27480013E+03</pdfrwt>
<totfact> 0.29215954E+03</totfact>
</mgrwt>
</event>
<event>
 9    1  0.2098759E-002  0.2744854E+03  0.7818608E-02  0.1098740E+00
         -1   -1    0    0    0  501 -0.00000000000E+00  0.00000000000E+00  0.20217238509E+03  0.20217238509E+03  0.00000000000E+00 0. -1.
          1   -1    0    0  501    0  0.00000000000E+00 -0.00000000000E+00 -0.93165836744E+02  0.93165836744E+02  0.00000000000E+00 0. -1.
         36    2    1    2    0    0  0.35527136788E-14  0.71054273576E-14  0.10900654834E+03  0.29533822183E+03  0.27448540525E+03 0.  0.
         25    2    3    3    0    0 -0.10640507925E+02  0.31730963308E+02  0.99869925099E+02  0.16603184667E+03  0.12834522870E+03 0.  0.
         25    2    3    3    0    0  0.10640507925E+02 -0.31730963308E+02  0.91366232442E+01  0.12930637516E+03  0.12456559048E+03 0.  0.
          5    1    4    4  502    0  0.48115611200E+02 -0.15394614245E+02  0.66170225577E+02  0.83382821623E+02  0.47000000000E+01 0.  1.
         -5    1    4    4    0  502 -0.58756119124E+02  0.47125577553E+02  0.33699699522E+02  0.82649025052E+02  0.47000000000E+01 0.  1.
          5    1    5    5  503    0  0.39503189489E+02 -0.30750372799E+02 -0.45188344570E+02  0.67602987301E+02  0.47000000000E+01 0.  1.
         -5    1    5    5    0  503 -0.28862681564E+02 -0.98059050894E+00  0.54324967814E+02  0.61703387855E+02  0.47000000000E+01 0.  1.
<mgrwt>
<rscale>  0 0.27448541E+03</rscale>
<asrwt>0</asrwt>
<pdfrwt beam="1">  1        1 0.14333206E-01 0.27448541E+03</pdfrwt>
<pdfrwt beam="2">  1       -1 0.31103444E-01 0.27448541E+03</pdfrwt>
<totfact> 0.37797989E+03</totfact>
</mgrwt>
</event>
<event>
 9    1  0.2098759E-002  0.2759932E+03  0.7818608E-02  0.1097898E+00
         -2   -1    0    0    0  501 -0.00000000000E+00  0.00000000000E+00  0.14802149317E+02  0.14802149317E+02  0.00000000000E+00 0. -1.
          2   -1    0    0  501    0  0.00000000000E+00 -0.00000000000E+00 -0.12865065993E+04  0.12865065993E+04  0.00000000000E+00 0. -1.
         36    2    1    2    0    0  0.71054273576E-14  0.35527136788E-14 -0.12717044499E+04  0.13013087486E+04  0.27599320847E+03 0.  0.
         25    2    3    3    0    0  0.50636726613E+02  0.21347193165E+02 -0.56814716089E+03  0.58459576840E+03  0.12625860473E+03 0.  0.
         25    2    3    3    0    0 -0.50636726613E+02 -0.21347193165E+02 -0.70355728905E+03  0.71671298017E+03  0.12515932339E+03 0.  0.
          5    1    4    4  502    0 -0.17745642076E+01 -0.31071105242E+02 -0.38325824635E+02  0.49593563020E+02  0.47000000000E+01 0. -1.
         -5    1    4    4    0  502  0.52411290821E+02  0.52418298407E+02 -0.52982133625E+03  0.53500220538E+03  0.47000000000E+01 0. -1.
          5    1    5    5  503    0  0.29914823344E+02  0.15946625036E+02 -0.36778134130E+03  0.36937027021E+03  0.47000000000E+01 0. -1.
         -5    1    5    5    0  503 -0.80551549958E+02 -0.37293818201E+02 -0.33577594774E+03  0.34734270996E+03  0.47000000000E+01 0. -1.
<mgrwt>
<rscale>  0 0.27599321E+03</rscale>
<asrwt>0</asrwt>
<pdfrwt beam="1">  1        2 0.19792417E+00 0.27599321E+03</pdfrwt>
<pdfrwt beam="2">  1       -2 0.22772528E-02 0.27599321E+03</pdfrwt>
<totfact> 0.11384959E+04</totfact>
</mgrwt>
</event>
<event>
 9    1  0.2098759E-002  0.2751500E+03  0.7818608E-02  0.1098368E+00
         -2   -1    0    0    0  501 -0.00000000000E+00  0.00000000000E+00  0.94151711583E+01  0.94151711583E+01  0.00000000000E+00 0.  1.
          2   -1    0    0  501    0  0.00000000000E+00 -0.00000000000E+00 -0.20102528576E+04  0.20102528576E+04  0.00000000000E+00 0.  1.
         36    2    1    2    0    0 -0.71054273576E-14  0.53290705182E-14 -0.20008376865E+04  0.20196680288E+04  0.27514995712E+03 0.  0.
         25    2    3    3    0    0 -0.53449668424E+02  0.99295020832E+01 -0.10254254669E+04  0.10347160893E+04  0.12721845504E+03 0.  0.
         25    2    3    3    0    0  0.53449668424E+02 -0.99295020832E+01 -0.97541221961E+03  0.98495193948E+03  0.12548252018E+03 0.  0.
          5    1    4    4  502    0 -0.55095821454E+02 -0.40407362505E+01 -0.10151735059E+04  0.10166863893E+04  0.47000000000E+01 0. -1.
         -5    1    4    4    0  502  0.16461530299E+01  0.13970238334E+02 -0.10251960967E+02  0.18029700013E+02  0.47000000000E+01 0. -1.
          5    1    5    5  503    0  0.81842059864E+02 -0.43243269064E+02 -0.64918626901E+03  0.65576901799E+03  0.47000000000E+01 0.  1.
         -5    1    5    5    0  503 -0.28392391441E+02  0.33313766981E+02 -0.32622595059E+03  0.32918292149E+03  0.47000000000E+01 0.  1.
<mgrwt>
<rscale>  0 0.27514996E+03</rscale>
<asrwt>0</asrwt>
<pdfrwt beam="1">  1        2 0.30926960E+00 0.27514996E+03</pdfrwt>
<pdfrwt beam="2">  1       -2 0.14484882E-02 0.27514996E+03</pdfrwt>
<totfact> 0.91114285E+03</totfact>
</mgrwt>
</event>
<event>
 9    1  0.2098759E-002  0.2750005E+03  0.7818608E-02  0.1098451E+00
          3   -1    0    0  501    0  0.00000000000E+00  0.00000000000E+00  0.14123309116E+03  0.14123309116E+03  0.00000000000E+00 0.  1.
         -3   -1    0    0    0  501 -0.00000000000E+00 -0.00000000000E+00 -0.13386609906E+03  0.13386609906E+03  0.00000000000E+00 0.  1.
         36    2    1    2    0    0 -0.35527136788E-14  0.00000000000E+00  0.73669921005E+01  0.27509919023E+03  0.27500053071E+03 0.  0.
         25    2    3    3    0    0  0.26216922445E+02 -0.40295501829E+02 -0.51468166653E+01  0.13416346014E+03  0.12514907042E+03 0.  0.
         25    2    3    3    0    0 -0.26216922445E+02  0.40295501829E+02  0.12513808766E+02  0.14093573008E+03  0.13189097814E+03 0.  0.
          5    1    4    4  502    0  0.32426821059E+02 -0.43223653801E+02 -0.58726448164E+02  0.79941658013E+02  0.47000000000E+01 0.  1.
         -5    1    4    4    0  502 -0.62098986133E+01  0.29281519724E+01  0.53579631499E+02  0.54221802131E+02  0.47000000000E+01 0.  1.
          5    1    5    5  503    0 -0.41118925774E+02  0.48086521646E+02  0.61848461637E+02  0.88602493349E+02  0.47000000000E+01 0.  1.
         -5    1    5    5    0  503  0.14902003329E+02 -0.77910198173E+01 -0.49334652871E+02  0.52333236733E+02  0.47000000000E+01 0.  1.
<mgrwt>
<rscale>  0 0.27500053E+03</rscale>
<asrwt>0</asrwt>
<pdfrwt beam="1">  1        3 0.21728168E-01 0.27500053E+03</pdfrwt>
<pdfrwt beam="2">  1       -3 0.20594785E-01 0.27500053E+03</pdfrwt>
<totfact> 0.10487439E+03</totfact>
</mgrwt>
</event>
<event>
 9    1  0.2098759E-002  0.2749967E+03  0.7818608E-02  0.1098453E+00
          2   -1    0    0  501    0  0.00000000000E+00  0.00000000000E+00  0.39037033448E+03  0.39037033448E+03  0.00000000000E+00 0.  1.
         -2   -1    0    0    0  501 -0.00000000000E+00 -0.00000000000E+00 -0.48430408067E+02  0.48430408067E+02  0.00000000000E+00 0.  1.
         36    2    1    2    0    0  0.14210854715E-13  0.00000000000E+00  0.34193992642E+03  0.43880074255E+03  0.27499668795E+03 0.  0.
         25    2    3    3    0    0 -0.68856534038E+02  0.93125048757E+01  0.11938072555E+03  0.18507879501E+03  0.12318464880E+03 0.  0.
         25    2    3    3    0    0  0.68856534038E+02 -0.93125048757E+01  0.22255920087E+03  0.25372194754E+03  0.10007139326E+03 0.  0.
          5    1    4    4  502    0 -0.83896534581E+02  0.18511902049E+02  0.13564699903E+03  0.16063473279E+03  0.47000000000E+01 0.  1.
         -5    1    4    4    0  502  0.15040000543E+02 -0.91993971728E+01 -0.16266273481E+02  0.24444062216E+02  0.47000000000E+01 0.  1.
          5    1    5    5  503    0  0.79472766080E+02 -0.10810251841E+02  0.22730824750E+03  0.24108901152E+03  0.47000000000E+01 0. -1.
         -5    1    5    5    0  503 -0.10616232042E+02  0.14977469652E+01 -0.47490466332E+01  0.12632936027E+02  0.47000000000E+01 0. -1.
<mgrwt>
<rscale>  0 0.27499669E+03</rscale>
<asrwt>0</asrwt>
<pdfrwt beam="1">  1        2 0.60056972E-01 0.27499669E+03</pdfrwt>
<pdfrwt beam="2">  1       -2 0.74508323E-02 0.27499669E+03</pdfrwt>
<totfact> 0.86097767E+03</totfact>
</mgrwt>
</event>
<event>
 9    1  0.2098759E-002  0.2740032E+03  0.7818608E-02  0.1099010E+00
          2   -1    0    0  501    0  0.00000000000E+00  0.00000000000E+00  0.24368441673E+03  0.24368441673E+03  0.00000000000E+00 0. -1.
         -2   -1    0    0    0  501 -0.00000000000E+00 -0.00000000000E+00 -0.77023529510E+02  0.77023529510E+02  0.00000000000E+00 0. -1.
         36    2    1    2    0    0 -0.14210854715E-13  0.00000000000E+00  0.16666088722E+03  0.32070794624E+03  0.27400316686E+03 0.  0.
         25    2    3    3    0    0 -0.36496209573E+02  0.24746040586E+02  0.28509181182E+02  0.13288285115E+03  0.12206858269E+03 0.  0.
         25    2    3    3    0    0  0.36496209573E+02 -0.24746040586E+02  0.13815170603E+03  0.18782509509E+03  0.11936512316E+03 0.  0.
          5    1    4    4  502    0  0.11690222639E+02  0.56259796597E+02  0.44628275209E+02  0.72908154322E+02  0.47000000000E+01 0. -1.
         -5    1    4    4    0  502 -0.48186432212E+02 -0.31513756010E+02 -0.16119094028E+02  0.59974696827E+02  0.47000000000E+01 0. -1.
          5    1    5    5  503    0 -0.41251683741E+02  0.12348752546E+01  0.68708939284E+02  0.80288446653E+02  0.47000000000E+01 0. -1.
         -5    1    5    5    0  503  0.77747893314E+02 -0.25980915841E+02  0.69442766750E+02  0.10753664844E+03  0.47000000000E+01 0. -1.
<mgrwt>
<rscale>  0 0.27400317E+03</rscale>
<asrwt>0</asrwt>
<pdfrwt beam="1">  1        2 0.37489910E-01 0.27400317E+03</pdfrwt>
<pdfrwt beam="2">  1       -2 0.11849774E-01 0.27400317E+03</pdfrwt>
<totfact> 0.68671425E+03</totfact>
</mgrwt>
</event>
<event>
 9    1  0.2098759E-002  0.2715373E+03  0.7818608E-02  0.1100403E+00
         -2   -1    0    0    0  501 -0.00000000000E+00  0.00000000000E+00  0.52432901481E+03  0.52432901481E+03  0.00000000000E+00 0. -1.
          2   -1    0    0  501    0  0.00000000000E+00 -0.00000000000E+00 -0.35155643253E+02  0.35155643253E+02  0.00000000000E+00 0. -1.
         36    2    1    2    0    0  0.71054273576E-14  0.71054273576E-14  0.48917337156E+03  0.55948465806E+03  0.27153728136E+03 0.  0.
         25    2    3    3    0    0 -0.24398430291E+02  0.25427552917E+02  0.31758166709E+03  0.34432510452E+03  0.12829582410E+03 0.  0.
         25    2    3    3    0    0  0.24398430291E+02 -0.25427552917E+02  0.17159170447E+03  0.21515955355E+03  0.12493228803E+03 0.  0.
          5    1    4    4  502    0 -0.34660039105E+02  0.74695772197E+02  0.20004495609E+03  0.21638126341E+03  0.47000000000E+01 0. -1.
         -5    1    4    4    0  502  0.10261608814E+02 -0.49268219281E+02  0.11753671100E+03  0.12794384111E+03  0.47000000000E+01 0. -1.
          5    1    5    5  503    0 -0.31735067459E+02 -0.14095369410E+02  0.14957920248E+03  0.15362884417E+03  0.47000000000E+01 0. -1.
         -5    1    5    5    0  503  0.56133497750E+02 -0.11332183507E+02  0.22012501985E+02  0.61530709376E+02  0.47000000000E+01 0. -1.
<mgrwt>
<rscale>  0 0.27153728E+03</rscale>
<asrwt>0</asrwt>
<pdfrwt beam="1">  1        2 0.54085609E-02 0.27153728E+03</pdfrwt>
<pdfrwt beam="2">  1       -2 0.80665997E-01 0.27153728E+03</pdfrwt>
<totfact> 0.19761741E+03</totfact>
</mgrwt>
</event>
<event>
 9    1  0.2098759E-002  0.2746372E+03  0.7818608E-02  0.1098655E+00
         -2   -1    0    0    0  501 -0.00000000000E+00  0.00000000000E+00  0.18159416885E+03  0.18159416885E+03  0.00000000000E+00 0. -1.
          2   -1    0    0  501    0  0.00000000000E+00 -0.00000000000E+00 -0.10383810975E+03  0.10383810975E+03  0.00000000000E+00 0. -1.
         36    2    1    2    0    0 -0.71054273576E-14 -0.71054273576E-14  0.77756059097E+02  0.28543227860E+03  0.27463718055E+03 0.  0.
         25    2    3    3    0    0  0.49023225014E+02 -0.63877723881E+01  0.53398633676E+02  0.14580935692E+03  0.12635218344E+03 0.  0.
         25    2    3    3    0    0 -0.49023225014E+02  0.63877723881E+01  0.24357425421E+02  0.13962292168E+03  0.12828560270E+03 0.  0.
          5    1    4    4  502    0 -0.21084161867E+02  0.38326371177E+02  0.43616732161E+02  0.61951286779E+02  0.47000000000E+01 0. -1.
         -5    1    4    4    0  502  0.70107386880E+02 -0.44714143565E+02  0.97819015149E+01  0.83858070137E+02  0.47000000000E+01 0. -1.
          5    1    5    5  503    0  0.33664128774E+02  0.36014071979E+02  0.88818817827E+01  0.50311676285E+02  0.47000000000E+01 0.  1.
         -5    1    5    5    0  503 -0.82687353788E+02 -0.29626299591E+02  0.15475543638E+02  0.89311245399E+02  0.47000000000E+01 0.  1.
<mgrwt>
<rscale>  0 0.27463718E+03</rscale>
<asrwt>0</asrwt>
<pdfrwt beam="1">  1        2 0.15975094E-01 0.27463718E+03</pdfrwt>
<pdfrwt beam="2">  1       -2 0.27937564E-01 0.27463718E+03</pdfrwt>
<totfact> 0.41841791E+03</totfact>
</mgrwt>
</event>
<event>
 9    1  0.2098759E-002  0.2752948E+03  0.7818608E-02  0.1098287E+00
          2   -1    0    0  501    0  0.00000000000E+00  0.00000000000E+00  0.12282869205E+03  0.12282869205E+03  0.00000000000E+00 0. -1.
         -2   -1    0    0    0  501 -0.00000000000E+00 -0.00000000000E+00 -0.15425395854E+03  0.15425395854E+03  0.00000000000E+00 0. -1.
         36    2    1    2    0    0  0.10658141036E-13 -0.35527136788E-14 -0.31425266492E+02  0.27708265058E+03  0.27529483809E+03 0.  0.
         25    2    3    3    0    0  0.30972856485E+02 -0.27537220670E+02  0.83529706988E+01  0.13856651333E+03  0.13195942610E+03 0.  0.
         25    2    3    3    0    0 -0.30972856485E+02  0.27537220670E+02 -0.39778237191E+02  0.13851613725E+03  0.12604283305E+03 0.  0.
          5    1    4    4  502    0 -0.23308650918E+02  0.42450941755E+02 -0.48331706644E+01  0.48896065303E+02  0.47000000000E+01 0. -1.
         -5    1    4    4    0  502  0.54281507403E+02 -0.69988162425E+02  0.13186141363E+02  0.89670448028E+02  0.47000000000E+01 0. -1.
          5    1    5    5  503    0  0.33734907062E+02  0.19706866146E+02  0.24903657355E+02  0.46569160154E+02  0.47000000000E+01 0.  1.
         -5    1    5    5    0  503 -0.64707763547E+02  0.78303545246E+01 -0.64681894546E+02  0.91946977097E+02  0.47000000000E+01 0.  1.
<mgrwt>
<rscale>  0 0.27529484E+03</rscale>
<asrwt>0</asrwt>
<pdfrwt beam="1">  1        2 0.18896722E-01 0.27529484E+03</pdfrwt>
<pdfrwt beam="2">  1       -2 0.23731378E-01 0.27529484E+03</pdfrwt>
<totfact> 0.45950250E+03</totfact>
</mgrwt>
</event>
<event>
 9    1  0.2098759E-002  0.2753031E+03  0.7818608E-02  0.1098282E+00
          1   -1    0    0  501    0  0.00000000000E+00  0.00000000000E+00  0.58701333958E+03  0.58701333958E+03  0.00000000000E+00 0.  1.
         -1   -1    0    0    0  501 -0.00000000000E+00 -0.00000000000E+00 -0.32278562776E+02  0.32278562776E+02  0.00000000000E+00 0.  1.
         36    2    1    2    0    0  0.35527136788E-14 -0.71054273576E-14  0.55473477680E+03  0.61929190235E+03  0.27530308340E+03 0.  0.
         25    2    3    3    0    0 -0.18318800550E+02  0.57808121071E+02  0.27001322934E+03  0.30418413784E+03  0.12626752700E+03 0.  0.
         25    2    3    3    0    0  0.18318800550E+02 -0.57808121071E+02  0.28472154746E+03  0.31510776452E+03  0.12062000811E+03 0.  0.
          5    1    4    4  502    0  0.27302518802E+02 -0.29392894222E+02  0.61690154836E+02  0.73736930825E+02  0.47000000000E+01 0. -1.
         -5    1    4    4    0  502 -0.45621319352E+02  0.87201015293E+02  0.20832307451E+03  0.23044720701E+03  0.47000000000E+01 0. -1.
          5    1    5    5  503    0 -0.34454895089E+02 -0.52414640494E+02  0.23120142945E+03  0.23960514459E+03  0.47000000000E+01 0.  1.
         -5    1    5    5    0  503  0.52773695639E+02 -0.53934805768E+01  0.53520118005E+02  0.75502619924E+02  0.47000000000E+01 0.  1.
<mgrwt>
<rscale>  0 0.27530308E+03</rscale>
<asrwt>0</asrwt>
<pdfrwt beam="1">  1        1 0.90309736E-01 0.27530308E+03</pdfrwt>
<pdfrwt beam="2">  1       -1 0.49659332E-02 0.27530308E+03</pdfrwt>
<totfact> 0.64240256E+03</totfact>
</mgrwt>
</event>
<event>
 9    1  0.2098759E-002  0.2748885E+03  0.7818608E-02  0.1098514E+00
          2   -1    0    0  501    0  0.00000000000E+00  0.00000000000E+00  0.44091330348E+03  0.44091330348E+03  0.00000000000E+00 0.  1.
         -2   -1    0    0    0  501 -0.00000000000E+00 -0.00000000000E+00 -0.42844982116E+02  0.42844982116E+02  0.00000000000E+00 0.  1.
         36    2    1    2    0    0  0.35527136788E-14  0.00000000000E+00  0.39806832136E+03  0.48375828559E+03  0.27488850541E+03 0.  0.
         25    2    3    3    0    0  0.20334237008E+02  0.54082623053E+02  0.20319897895E+03  0.24503726453E+03  0.12415725774E+03 0.  0.
         25    2    3    3    0    0 -0.20334237008E+02 -0.54082623053E+02  0.19486934241E+03  0.23872102106E+03  0.12520085453E+03 0.  0.
          5    1    4    4  502    0 -0.37976611590E+02  0.20179965140E+00  0.13483830137E+03  0.14016319512E+03  0.47000000000E+01 0. -1.
         -5    1    4    4    0  502  0.58310848598E+02  0.53880823402E+02  0.68360677582E+02  0.10487406941E+03  0.47000000000E+01 0. -1.
          5    1    5    5  503    0  0.39483672174E+01 -0.27145979863E+02  0.19988148131E+03  0.20180978767E+03  0.47000000000E+01 0. -1.
         -5    1    5    5    0  503 -0.24282604225E+02 -0.26936643191E+02 -0.50121389033E+01  0.36911233395E+02  0.47000000000E+01 0. -1.
<mgrwt>
<rscale>  0 0.27488851E+03</rscale>
<asrwt>0</asrwt>
<pdfrwt beam="1">  1        2 0.67832813E-01 0.27488851E+03</pdfrwt>
<pdfrwt beam="2">  1       -2 0.65915360E-02 0.27488851E+03</pdfrwt>
<totfact> 0.91141971E+03</totfact>
</mgrwt>
</event>
<event>
 9    1  0.2098759E-002  0.2747452E+03  0.7818608E-02  0.1098594E+00
         -1   -1    0    0    0  501 -0.00000000000E+00  0.00000000000E+00  0.18558598083E+03  0.18558598083E+03  0.00000000000E+00 0. -1.
          1   -1    0    0  501    0  0.00000000000E+00 -0.00000000000E+00 -0.10168455056E+03  0.10168455056E+03  0.00000000000E+00 0. -1.
         36    2    1    2    0    0  0.00000000000E+00  0.00000000000E+00  0.83901430265E+02  0.28727053139E+03  0.27474516957E+03 0.  0.
         25    2    3    3    0    0 -0.30525301981E+02  0.56474492285E+02  0.69314474315E+02  0.14804865332E+03  0.11398572306E+03 0.  0.
         25    2    3    3    0    0  0.30525301981E+02 -0.56474492285E+02  0.14586955950E+02  0.13922187807E+03  0.12267350859E+03 0.  0.
          5    1    4    4  502    0 -0.73066029474E+02  0.44989310504E+02  0.52188714673E+02  0.10054071147E+03  0.47000000000E+01 0. -1.
         -5    1    4    4    0  502  0.42540727493E+02  0.11485181780E+02  0.17125759642E+02  0.47507941857E+02  0.47000000000E+01 0. -1.
          5    1    5    5  503    0  0.27942842935E+02 -0.87518772352E+02 -0.18175569585E+02  0.93769820919E+02  0.47000000000E+01 0.  1.
         -5    1    5    5    0  503  0.25824590457E+01  0.31044280068E+02  0.32762525535E+02  0.45452057149E+02  0.47000000000E+01 0.  1.
<mgrwt>
<rscale>  0 0.27474517E+03</rscale>
<asrwt>0</asrwt>
<pdfrwt beam="1">  1        1 0.15643777E-01 0.27474517E+03</pdfrwt>
<pdfrwt beam="2">  1       -1 0.28551689E-01 0.27474517E+03</pdfrwt>
<totfact> 0.38976915E+03</totfact>
</mgrwt>
</event>
<event>
 9    1  0.2098759E-002  0.2751085E+03  0.7818608E-02  0.1098391E+00
          2   -1    0    0  501    0  0.00000000000E+00  0.00000000000E+00  0.27893118553E+04  0.27893118553E+04  0.00000000000E+00 0. -1.
         -2   -1    0    0    0  501 -0.00000000000E+00 -0.00000000000E+00 -0.67834540658E+01  0.67834540658E+01  0.00000000000E+00 0. -1.
         36    2    1    2    0    0  0.00000000000E+00  0.00000000000E+00  0.27825284012E+04  0.27960953094E+04  0.27510847930E+03 0.  0.
         25    2    3    3    0    0  0.50581217862E+02 -0.25690955758E+02  0.14972603473E+04  0.15033698329E+04  0.12293828536E+03 0.  0.
         25    2    3    3    0    0 -0.50581217862E+02  0.25690955758E+02  0.12852680539E+04  0.12927254765E+04  0.12651759674E+03 0.  0.
          5    1    4    4  502    0  0.87111379479E+02 -0.17006840255E+02  0.76754241225E+03  0.77267138530E+03  0.47000000000E+01 0.  1.
         -5    1    4    4    0  502 -0.36530161617E+02 -0.86841155030E+01  0.72971793506E+03  0.73069844760E+03  0.47000000000E+01 0.  1.
          5    1    5    5  503    0 -0.89411680701E+02  0.34972564805E+02  0.10054830948E+04  0.10100672616E+04  0.47000000000E+01 0. -1.
         -5    1    5    5    0  503  0.38830462839E+02 -0.92816090470E+01  0.27978495911E+03  0.28265821491E+03  0.47000000000E+01 0. -1.
<mgrwt>
<rscale>  0 0.27510848E+03</rscale>
<asrwt>0</asrwt>
<pdfrwt beam="1">  1        2 0.42912398E+00 0.27510848E+03</pdfrwt>
<pdfrwt beam="2">  1       -2 0.10436105E-02 0.27510848E+03</pdfrwt>
<totfact> 0.55366699E+03</totfact>
</mgrwt>
</event>
<event>
 9    1  0.2098759E-002  0.2770312E+03  0.7818608E-02  0.1097322E+00
          1   -1    0    0  501    0  0.00000000000E+00  0.00000000000E+00  0.22585143231E+03  0.22585143231E+03  0.00000000000E+00 0. -1.
         -1   -1    0    0    0  501 -0.00000000000E+00 -0.00000000000E+00 -0.84952159070E+02  0.84952159070E+02  0.00000000000E+00 0. -1.
         36    2    1    2    0    0 -0.71054273576E-14  0.00000000000E+00  0.14089927324E+03  0.31080359138E+03  0.27703116650E+03 0.  0.
         25    2    3    3    0    0 -0.10948348508E+02  0.70222518453E+01  0.75602573611E+02  0.16751526246E+03  0.14891754653E+03 0.  0.
         25    2    3    3    0    0  0.10948348508E+02 -0.70222518453E+01  0.65296699627E+02  0.14328832892E+03  0.12688068358E+03 0.  0.
          5    1    4    4  502    0  0.47802393230E+02  0.26561329594E+02 -0.15709393238E+02  0.57091576123E+02  0.47000000000E+01 0.  1.
         -5    1    4    4    0  502 -0.58750741738E+02 -0.19539077748E+02  0.91311966848E+02  0.11042368633E+03  0.47000000000E+01 0.  1.
          5    1    5    5  503    0 -0.21856304650E+02 -0.12213260827E+02  0.95078132313E+02  0.98431717637E+02  0.47000000000E+01 0. -1.
         -5    1    5    5    0  503  0.32804653158E+02  0.51910089817E+01 -0.29781432685E+02  0.44856611283E+02  0.47000000000E+01 0. -1.
<mgrwt>
<rscale>  0 0.27703117E+03</rscale>
<asrwt>0</asrwt>
<pdfrwt beam="1">  1        1 0.34746374E-01 0.27703117E+03</pdfrwt>
<pdfrwt beam="2">  1       -1 0.13069563E-01 0.27703117E+03</pdfrwt>
<totfact> 0.49969505E+03</totfact>
</mgrwt>
</event>
<event>
 9    1  0.2098759E-002  0.2755075E+03  0.7818608E-02  0.1098168E+00
          2   -1    0    0  501    0  0.00000000000E+00  0.00000000000E+00  0.18782578275E+02  0.18782578275E+02  0.00000000000E+00 0.  1.
         -2   -1    0    0    0  501 -0.00000000000E+00 -0.00000000000E+00 -0.10103028780E+04  0.10103028780E+04  0.00000000000E+00 0.  1.
         36    2    1    2    0    0  0.00000000000E+00  0.00000000000E+00 -0.99152029974E+03  0.10290854563E+04  0.27550748003E+03 0.  0.
         25    2    3    3    0    0 -0.22153580013E+02  0.51612323317E+02 -0.49468452247E+03  0.51305987488E+03  0.12394775274E+03 0.  0.
         25    2    3    3    0    0  0.22153580013E+02 -0.51612323317E+02 -0.49683577727E+03  0.51602558142E+03  0.12760093289E+03 0.  0.
          5    1    4    4  502    0 -0.11166786074E+02  0.38240684643E+02 -0.49345689671E+03  0.49508468567E+03  0.47000000000E+01 0.  1.
         -5    1    4    4    0  502 -0.10986793939E+02  0.13371638674E+02 -0.12276257570E+01  0.17975189203E+02  0.47000000000E+01 0.  1.
          5    1    5    5  503    0  0.29118567434E+02  0.17252507409E+01 -0.42567103345E+03  0.42669519118E+03  0.47000000000E+01 0. -1.
         -5    1    5    5    0  503 -0.69649874210E+01 -0.53337574058E+02 -0.71164743818E+02  0.89330390231E+02  0.47000000000E+01 0. -1.
<mgrwt>
<rscale>  0 0.27550748E+03</rscale>
<asrwt>0</asrwt>
<pdfrwt beam="1">  1        2 0.28896279E-02 0.27550748E+03</pdfrwt>
<pdfrwt beam="2">  1       -2 0.15543119E+00 0.27550748E+03</pdfrwt>
<totfact> 0.95352512E+02</totfact>
</mgrwt>
</event>
<event>
 9    1  0.2098759E-002  0.2756802E+03  0.7818608E-02  0.1098072E+00
         -1   -1    0    0    0  501 -0.00000000000E+00  0.00000000000E+00  0.37137239287E+02  0.37137239287E+02  0.00000000000E+00 0.  1.
          1   -1    0    0  501    0  0.00000000000E+00 -0.00000000000E+00 -0.51161292951E+03  0.51161292951E+03  0.00000000000E+00 0.  1.
         36    2    1    2    0    0  0.00000000000E+00  0.00000000000E+00 -0.47447569022E+03  0.54875016879E+03  0.27568018997E+03 0.  0.
         25    2    3    3    0    0  0.22472335914E+02 -0.49171383946E+02 -0.26601682853E+03  0.29972510858E+03  0.12707225019E+03 0.  0.
         25    2    3    3    0    0 -0.22472335914E+02  0.49171383946E+02 -0.20845886169E+03  0.24902506022E+03  0.12504220375E+03 0.  0.
          5    1    4    4  502    0 -0.48920213585E+02 -0.35100811396E+02 -0.82420260343E+02  0.10217848880E+03  0.47000000000E+01 0.  1.
         -5    1    4    4    0  502  0.71392549499E+02 -0.14070572550E+02 -0.18359656819E+03  0.19754661978E+03  0.47000000000E+01 0.  1.
          5    1    5    5  503    0 -0.12898369084E+02  0.67919968490E+02 -0.21547498627E+03  0.22634277049E+03  0.47000000000E+01 0. -1.
         -5    1    5    5    0  503 -0.95739668298E+01 -0.18748584543E+02  0.70161245801E+01  0.22682289729E+02  0.47000000000E+01 0. -1.
<mgrwt>
<rscale>  0 0.27568019E+03</rscale>
<asrwt>0</asrwt>
<pdfrwt beam="1">  1        1 0.78709682E-01 0.27568019E+03</pdfrwt>
<pdfrwt beam="2">  1       -1 0.57134214E-02 0.27568019E+03</pdfrwt>
<totfact> 0.62718018E+03</totfact>
</mgrwt>
</event>
<event>
 9    1  0.2098759E-002  0.2746449E+03  0.7818608E-02  0.1098650E+00
         -4   -1    0    0    0  501 -0.00000000000E+00  0.00000000000E+00  0.25446113278E+03  0.25446113278E+03  0.00000000000E+00 0.  1.
          4   -1    0    0  501    0  0.00000000000E+00 -0.00000000000E+00 -0.74107418772E+02  0.74107418772E+02  0.00000000000E+00 0.  1.
         36    2    1    2    0    0  0.00000000000E+00  0.00000000000E+00  0.18035371400E+03  0.32856855155E+03  0.27464491787E+03 0.  0.
         25    2    3    3    0    0 -0.18409663292E+02  0.67098029444E+02  0.66565057229E+02  0.15849247800E+03  0.12588843267E+03 0.  0.
         25    2    3    3    0    0  0.18409663292E+02 -0.67098029444E+02  0.11378865677E+03  0.17007607355E+03  0.10553175412E+03 0.  0.
          5    1    4    4  502    0 -0.26443676726E+02  0.76220478552E+02  0.96484469937E+02  0.12585774640E+03  0.47000000000E+01 0. -1.
         -5    1    4    4    0  502  0.80340134340E+01 -0.91224491081E+01 -0.29919412708E+02  0.32634731596E+02  0.47000000000E+01 0. -1.
          5    1    5    5  503    0  0.61152695717E+02 -0.33289367115E+02  0.78238409477E+02  0.10483879470E+03  0.47000000000E+01 0. -1.
         -5    1    5    5    0  503 -0.42743032425E+02 -0.33808662329E+02  0.35550247297E+02  0.65237278854E+02  0.47000000000E+01 0. -1.
<mgrwt>
<rscale>  0 0.27464492E+03</rscale>
<asrwt>0</asrwt>
<pdfrwt beam="1">  1        4 0.11401141E-01 0.27464492E+03</pdfrwt>
<pdfrwt beam="2">  1       -4 0.39147866E-01 0.27464492E+03</pdfrwt>
<totfact> 0.72199575E+02</totfact>
</mgrwt>
</event>
<event>
 9    1  0.2098759E-002  0.2747905E+03  0.7818608E-02  0.1098569E+00
          1   -1    0    0  501    0  0.00000000000E+00  0.00000000000E+00  0.10562042529E+04  0.10562042529E+04  0.00000000000E+00 0. -1.
         -1   -1    0    0    0  501 -0.00000000000E+00 -0.00000000000E+00 -0.17872915101E+02  0.17872915101E+02  0.00000000000E+00 0. -1.
         36    2    1    2    0    0 -0.71054273576E-14  0.71054273576E-14  0.10383313378E+04  0.10740771680E+04  0.27479045792E+03 0.  0.
         25    2    3    3    0    0 -0.21265819824E+02 -0.23454883931E+01  0.48800628541E+03  0.50985913237E+03  0.14611113528E+03 0.  0.
         25    2    3    3    0    0  0.21265819824E+02  0.23454883931E+01  0.55032505239E+03  0.56421803563E+03  0.12258300060E+03 0.  0.
          5    1    4    4  502    0 -0.51676719397E+02  0.54661640644E+02  0.34070501403E+03  0.34894179295E+03  0.47000000000E+01 0.  1.
         -5    1    4    4    0  502  0.30410899573E+02 -0.57007129037E+02  0.14730127138E+03  0.16091733941E+03  0.47000000000E+01 0.  1.
          5    1    5    5  503    0  0.36017682578E+02 -0.46690083963E+02  0.41949395864E+03  0.42364431867E+03  0.47000000000E+01 0. -1.
         -5    1    5    5    0  503 -0.14751862754E+02  0.49035572356E+02  0.13083109374E+03  0.14057371696E+03  0.47000000000E+01 0. -1.
<mgrwt>
<rscale>  0 0.27479046E+03</rscale>
<asrwt>0</asrwt>
<pdfrwt beam="1">  1        1 0.16249291E+00 0.27479046E+03</pdfrwt>
<pdfrwt beam="2">  1       -1 0.27496801E-02 0.27479046E+03</pdfrwt>
<totfact> 0.62285837E+03</totfact>
</mgrwt>
</event>
<event>
 9    1  0.2098759E-002  0.2751347E+03  0.7818608E-02  0.1098376E+00
          2   -1    0    0  501    0  0.00000000000E+00  0.00000000000E+00  0.45786556784E+02  0.45786556784E+02  0.00000000000E+00 0.  1.
         -2   -1    0    0    0  501 -0.00000000000E+00 -0.00000000000E+00 -0.41332607791E+03  0.41332607791E+03  0.00000000000E+00 0.  1.
         36    2    1    2    0    0  0.00000000000E+00 -0.71054273576E-14 -0.36753952112E+03  0.45911263469E+03  0.27513471563E+03 0.  0.
         25    2    3    3    0    0 -0.14083128569E+02  0.46688894349E+02 -0.25704231695E+03  0.28428715996E+03  0.11122162221E+03 0.  0.
         25    2    3    3    0    0  0.14083128569E+02 -0.46688894349E+02 -0.11049720417E+03  0.17482547473E+03  0.12639670534E+03 0.  0.
          5    1    4    4  502    0 -0.33168141227E+02  0.77192884949E+02 -0.16196503821E+03  0.18252021992E+03  0.47000000000E+01 0.  1.
         -5    1    4    4    0  502  0.19085012658E+02 -0.30503990600E+02 -0.95077278745E+02  0.10176694004E+03  0.47000000000E+01 0.  1.
          5    1    5    5  503    0 -0.45621654299E+01 -0.42604125028E+02 -0.13597614330E+03  0.14264475585E+03  0.47000000000E+01 0.  1.
         -5    1    5    5    0  503  0.18645293999E+02 -0.40847693212E+01  0.25478939132E+02  0.32180718886E+02  0.47000000000E+01 0.  1.
<mgrwt>
<rscale>  0 0.27513472E+03</rscale>
<asrwt>0</asrwt>
<pdfrwt beam="1">  1        2 0.70440854E-02 0.27513472E+03</pdfrwt>
<pdfrwt beam="2">  1       -2 0.63588629E-01 0.27513472E+03</pdfrwt>
<totfact> 0.23395528E+03</totfact>
</mgrwt>
</event>
<event>
 9    1  0.2098759E-002  0.2746228E+03  0.7818608E-02  0.1098663E+00
         -2   -1    0    0    0  501 -0.00000000000E+00  0.00000000000E+00  0.77756621787E+02  0.77756621787E+02  0.00000000000E+00 0.  1.
          2   -1    0    0  501    0  0.00000000000E+00 -0.00000000000E+00 -0.24247999693E+03  0.24247999693E+03  0.00000000000E+00 0.  1.
         36    2    1    2    0    0 -0.35527136788E-14  0.71054273576E-14 -0.16472337514E+03  0.32023661872E+03  0.27462283527E+03 0.  0.
         25    2    3    3    0    0  0.24277010735E+02 -0.50663952802E+02 -0.10188610363E+03  0.17050136277E+03  0.12463437419E+03 0.  0.
         25    2    3    3    0    0 -0.24277010735E+02  0.50663952802E+02 -0.62837271509E+02  0.14973525595E+03  0.12375748389E+03 0.  0.
          5    1    4    4  502    0  0.72918531945E+02 -0.22561893162E+02 -0.38312252123E+02  0.85534028239E+02  0.47000000000E+01 0.  1.
         -5    1    4    4    0  502 -0.48641521210E+02 -0.28102059641E+02 -0.63573851512E+02  0.84967334533E+02  0.47000000000E+01 0.  1.
          5    1    5    5  503    0 -0.22046367637E+02  0.66113588596E+02 -0.92486208351E+02  0.11590011932E+03  0.47000000000E+01 0. -1.
         -5    1    5    5    0  503 -0.22306430985E+01 -0.15449635793E+02  0.29648936842E+02  0.33835136628E+02  0.47000000000E+01 0. -1.
<mgrwt>
<rscale>  0 0.27462284E+03</rscale>
<asrwt>0</asrwt>
<pdfrwt beam="1">  1        2 0.37304615E-01 0.27462284E+03</pdfrwt>
<pdfrwt beam="2">  1       -2 0.11962557E-01 0.27462284E+03</pdfrwt>
<totfact> 0.67999183E+03</totfact>
</mgrwt>
</event>
<event>
 9    1  0.2098759E-002  0.2757507E+03  0.7818608E-02  0.1098033E+00
          2   -1    0    0  501    0  0.00000000000E+00  0.00000000000E+00  0.25517125956E+04  0.25517125956E+04  0.00000000000E+00 0.  1.
         -2   -1    0    0    0  501 -0.00000000000E+00 -0.00000000000E+00 -0.74497488917E+01  0.74497488917E+01  0.00000000000E+00 0.  1.
         36    2    1    2    0    0  0.00000000000E+00 -0.14210854715E-13  0.25442628467E+04  0.25591623445E+04  0.27575074311E+03 0.  0.
         25    2    3    3    0    0 -0.34775168538E+02 -0.36120141560E+02  0.10058388938E+04  0.10148201260E+04  0.12503611773E+03 0.  0.
         25    2    3    3    0    0  0.34775168538E+02  0.36120141560E+02  0.15384239529E+04  0.15443422186E+04  0.12542189674E+03 0.  0.
          5    1    4    4  502    0 -0.26705177205E+02  0.45221025747E+02  0.37404738354E+03  0.37774547356E+03  0.47000000000E+01 0. -1.
         -5    1    4    4    0  502 -0.80699913331E+01 -0.81341167308E+02  0.63179151031E+03  0.63707465242E+03  0.47000000000E+01 0. -1.
          5    1    5    5  503    0  0.45513836093E+02  0.75006478461E+02  0.80182111777E+03  0.80662052787E+03  0.47000000000E+01 0.  1.
         -5    1    5    5    0  503 -0.10738667555E+02 -0.38886336900E+02  0.73660283513E+03  0.73772169068E+03  0.47000000000E+01 0.  1.
<mgrwt>
<rscale>  0 0.27575074E+03</rscale>
<asrwt>0</asrwt>
<pdfrwt beam="1">  1        2 0.39257047E+00 0.27575074E+03</pdfrwt>
<pdfrwt beam="2">  1       -2 0.11461172E-02 0.27575074E+03</pdfrwt>
<totfact> 0.65666885E+03</totfact>
</mgrwt>
</event>
<event>
 9    1  0.2098759E-002  0.2749461E+03  0.7818608E-02  0.1098482E+00
          2   -1    0    0  501    0  0.00000000000E+00  0.00000000000E+00  0.31496822655E+03  0.31496822655E+03  0.00000000000E+00 0. -1.
         -2   -1    0    0    0  501 -0.00000000000E+00 -0.00000000000E+00 -0.60002381161E+02  0.60002381161E+02  0.00000000000E+00 0. -1.
         36    2    1    2    0    0 -0.71054273576E-14 -0.71054273576E-14  0.25496584539E+03  0.37497060771E+03  0.27494612987E+03 0.  0.
         25    2    3    3    0    0 -0.16570939143E+02 -0.48663601529E+02  0.49191186818E+02  0.12794234776E+03  0.10633310562E+03 0.  0.
         25    2    3    3    0    0  0.16570939143E+02  0.48663601529E+02  0.20577465857E+03  0.24702825995E+03  0.12663731270E+03 0.  0.
          5    1    4    4  502    0  0.39144229515E+02 -0.47280810656E+02  0.19244149310E+02  0.64499403434E+02  0.47000000000E+01 0. -1.
         -5    1    4    4    0  502 -0.55715168658E+02 -0.13827908730E+01  0.29947037508E+02  0.63442944325E+02  0.47000000000E+01 0. -1.
          5    1    5    5  503    0 -0.51618435849E+02  0.41365193591E+02  0.12003843259E+03  0.13713809631E+03  0.47000000000E+01 0.  1.
         -5    1    5    5    0  503  0.68189374992E+02  0.72984079385E+01  0.85736225983E+02  0.10989016365E+03  0.47000000000E+01 0.  1.
<mgrwt>
<rscale>  0 0.27494613E+03</rscale>
<asrwt>0</asrwt>
<pdfrwt beam="1">  1        2 0.48456649E-01 0.27494613E+03</pdfrwt>
<pdfrwt beam="2">  1       -2 0.92311357E-02 0.27494613E+03</pdfrwt>
<totfact> 0.77599564E+03</totfact>
</mgrwt>
</event>
<event>
 9    1  0.2098759E-002  0.2755360E+03  0.7818608E-02  0.1098152E+00
         -2   -1    0    0    0  501 -0.00000000000E+00  0.00000000000E+00  0.13179259195E+03  0.13179259195E+03  0.00000000000E+00 0.  1.
          2   -1    0    0  501    0  0.00000000000E+00 -0.00000000000E+00 -0.14401434821E+03  0.14401434821E+03  0.00000000000E+00 0.  1.
         36    2    1    2    0    0  0.00000000000E+00 -0.71054273576E-14 -0.12221756257E+02  0.27580694016E+03  0.27553601746E+03 0.  0.
         25    2    3    3    0    0 -0.58829076219E+02  0.81808917366E+01  0.84196021904E+01  0.13978090256E+03  0.12625380715E+03 0.  0.
         25    2    3    3    0    0  0.58829076219E+02 -0.81808917366E+01 -0.20641358448E+02  0.13602603760E+03  0.12062018915E+03 0.  0.
          5    1    4    4  502    0  0.14357357012E+02 -0.43699946385E+02 -0.11759320330E+02  0.47709439622E+02  0.47000000000E+01 0.  1.
         -5    1    4    4    0  502 -0.73186433231E+02  0.51880838121E+02  0.20178922520E+02  0.92071462937E+02  0.47000000000E+01 0.  1.
          5    1    5    5  503    0  0.40987297428E+02  0.53257012016E+02  0.35667893997E+01  0.67461691840E+02  0.47000000000E+01 0. -1.
         -5    1    5    5    0  503  0.17841778791E+02 -0.61437903752E+02 -0.24208147847E+02  0.68564345765E+02  0.47000000000E+01 0. -1.
<mgrwt>
<rscale>  0 0.27553602E+03</rscale>
<asrwt>0</asrwt>
<pdfrwt beam="1">  1        2 0.22156054E-01 0.27553602E+03</pdfrwt>
<pdfrwt beam="2">  1       -2 0.20275783E-01 0.27553602E+03</pdfrwt>
<totfact> 0.50321375E+03</totfact>
</mgrwt>
</event>
<event>
 9    1  0.2098759E-002  0.2746173E+03  0.7818608E-02  0.1098666E+00
         -1   -1    0    0    0  501 -0.00000000000E+00  0.00000000000E+00  0.27319925942E+03  0.27319925942E+03  0.00000000000E+00 0.  1.
          1   -1    0    0  501    0  0.00000000000E+00 -0.00000000000E+00 -0.69010662996E+02  0.69010662996E+02  0.00000000000E+00 0.  1.
         36    2    1    2    0    0  0.71054273576E-14 -0.71054273576E-14  0.20418859643E+03  0.34220992242E+03  0.27461727566E+03 0.  0.
         25    2    3    3    0    0 -0.25604682002E+02  0.56371848405E+02  0.11261269729E+03  0.17902800383E+03  0.12464357798E+03 0.  0.
         25    2    3    3    0    0  0.25604682002E+02 -0.56371848405E+02  0.91575899136E+02  0.16318191859E+03  0.12003669530E+03 0.  0.
          5    1    4    4  502    0 -0.24100181659E+02 -0.10543019759E+02 -0.17979428995E+02  0.32207512922E+02  0.47000000000E+01 0. -1.
         -5    1    4    4    0  502 -0.15045003425E+01  0.66914868164E+02  0.13059212629E+03  0.14682049091E+03  0.47000000000E+01 0. -1.
          5    1    5    5  503    0 -0.42853591009E+02 -0.99424940012E+01  0.70102384591E+01  0.44794161367E+02  0.47000000000E+01 0.  1.
         -5    1    5    5    0  503  0.68458273011E+02 -0.46429354404E+02  0.84565660676E+02  0.11838775722E+03  0.47000000000E+01 0.  1.
<mgrwt>
<rscale>  0 0.27461728E+03</rscale>
<asrwt>0</asrwt>
<pdfrwt beam="1">  1        1 0.10617025E-01 0.27461728E+03</pdfrwt>
<pdfrwt beam="2">  1       -1 0.42030655E-01 0.27461728E+03</pdfrwt>
<totfact> 0.33269580E+03</totfact>
</mgrwt>
</event>
<event>
 9    1  0.2098759E-002  0.2753065E+03  0.7818608E-02  0.1098280E+00
         -2   -1    0    0    0  501 -0.00000000000E+00  0.00000000000E+00  0.18439066289E+02  0.18439066289E+02  0.00000000000E+00 0.  1.
          2   -1    0    0  501    0  0.00000000000E+00 -0.00000000000E+00 -0.10276231897E+04  0.10276231897E+04  0.00000000000E+00 0.  1.
         36    2    1    2    0    0  0.00000000000E+00  0.00000000000E+00 -0.10091841234E+04  0.10460622559E+04  0.27530646279E+03 0.  0.
         25    2    3    3    0    0  0.21279741418E+02 -0.24337305433E+02 -0.70179457994E+03  0.71323617398E+03  0.12306533067E+03 0.  0.
         25    2    3    3    0    0 -0.21279741418E+02  0.24337305433E+02 -0.30738954342E+03  0.33282608196E+03  0.12344933210E+03 0.  0.
          5    1    4    4  502    0 -0.10112789827E+02 -0.68826679877E+02 -0.46623496467E+03  0.47141967785E+03  0.47000000000E+01 0. -1.
         -5    1    4    4    0  502  0.31392531245E+02  0.44489374444E+02 -0.23555961527E+03  0.24181649614E+03  0.47000000000E+01 0. -1.
          5    1    5    5  503    0 -0.35342713437E+02 -0.40101636353E+02 -0.82485345379E+02  0.98403103781E+02  0.47000000000E+01 0.  1.
         -5    1    5    5    0  503  0.14062972019E+02  0.64438941786E+02 -0.22490419804E+03  0.23442297817E+03  0.47000000000E+01 0.  1.
<mgrwt>
<rscale>  0 0.27530646E+03</rscale>
<asrwt>0</asrwt>
<pdfrwt beam="1">  1        2 0.15809594E+00 0.27530646E+03</pdfrwt>
<pdfrwt beam="2">  1       -2 0.28367782E-02 0.27530646E+03</pdfrwt>
<totfact> 0.11600574E+04</totfact>
</mgrwt>
</event>
<event>
 9    1  0.2098759E-002  0.2753574E+03  0.7818608E-02  0.1098252E+00
          2   -1    0    0  501    0  0.00000000000E+00  0.00000000000E+00  0.18477025817E+04  0.18477025817E+04  0.00000000000E+00 0. -1.
         -2   -1    0    0    0  501 -0.00000000000E+00 -0.00000000000E+00 -0.10258911959E+02  0.10258911959E+02  0.00000000000E+00 0. -1.
         36    2    1    2    0    0  0.26645352591E-14 -0.14210854715E-13  0.18374436697E+04  0.18579614936E+04  0.27535735409E+03 0.  0.
         25    2    3    3    0    0 -0.43397185028E+01 -0.60522804147E+02  0.88613315331E+03  0.89718735215E+03  0.12661491413E+03 0.  0.
         25    2    3    3    0    0  0.43397185028E+01  0.60522804147E+02  0.95131051641E+03  0.96077414149E+03  0.12005585927E+03 0.  0.
          5    1    4    4  502    0  0.43271364064E+02 -0.12408657529E+02  0.64793092412E+03  0.64950978296E+03  0.47000000000E+01 0. -1.
         -5    1    4    4    0  502 -0.47611082567E+02 -0.48114146618E+02  0.23820222919E+03  0.24767756919E+03  0.47000000000E+01 0. -1.
          5    1    5    5  503    0  0.32710464104E+01 -0.22112456593E+02  0.42917356725E+02  0.48617383614E+02  0.47000000000E+01 0. -1.
         -5    1    5    5    0  503  0.10686720925E+01  0.82635260740E+02  0.90839315968E+03  0.91215675787E+03  0.47000000000E+01 0. -1.
<mgrwt>
<rscale>  0 0.27535735E+03</rscale>
<asrwt>0</asrwt>
<pdfrwt beam="1">  1        2 0.28426167E+00 0.27535735E+03</pdfrwt>
<pdfrwt beam="2">  1       -2 0.15782956E-02 0.27535735E+03</pdfrwt>
<totfact> 0.97824179E+03</totfact>
</mgrwt>
</event>
<event>
 9    1  0.2098759E-002  0.2741030E+03  0.7818608E-02  0.1098954E+00
         -4   -1    0    0    0  501 -0.00000000000E+00  0.00000000000E+00  0.52418377616E+03  0.52418377616E+03  0.00000000000E+00 0. -1.
          4   -1    0    0  501    0  0.00000000000E+00 -0.00000000000E+00 -0.35833067984E+02  0.35833067984E+02  0.00000000000E+00 0. -1.
         36    2    1    2    0    0  0.35527136788E-14  0.71054273576E-14  0.48835070818E+03  0.56001684415E+03  0.27410299442E+03 0.  0.
         25    2    3    3    0    0 -0.81001034075E+01  0.21321328783E+02  0.19230434465E+03  0.23097724548E+03  0.12589406746E+03 0.  0.
         25    2    3    3    0    0  0.81001034075E+01 -0.21321328783E+02  0.29604636353E+03  0.32903959867E+03  0.14178644998E+03 0.  0.
          5    1    4    4  502    0  0.52894089900E+01 -0.12073628217E+02 -0.15004053808E+02  0.20517357931E+02  0.47000000000E+01 0.  1.
         -5    1    4    4    0  502 -0.13389512397E+02  0.33394957000E+02  0.20730839846E+03  0.21045988755E+03  0.47000000000E+01 0.  1.
          5    1    5    5  503    0  0.38899485989E+02 -0.40411879976E+02  0.36844204693E+02  0.67274627259E+02  0.47000000000E+01 0. -1.
         -5    1    5    5    0  503 -0.30799382582E+02  0.19090551193E+02  0.25920215883E+03  0.26176497141E+03  0.47000000000E+01 0. -1.
<mgrwt>
<rscale>  0 0.27410299E+03</rscale>
<asrwt>0</asrwt>
<pdfrwt beam="1">  1        4 0.55127801E-02 0.27410299E+03</pdfrwt>
<pdfrwt beam="2">  1       -4 0.80643652E-01 0.27410299E+03</pdfrwt>
<totfact> 0.53250446E+02</totfact>
</mgrwt>
</event>
<event>
 9    1  0.2098759E-002  0.2869486E+03  0.7818608E-02  0.1091953E+00
         -2   -1    0    0    0  501 -0.00000000000E+00  0.00000000000E+00  0.17054554508E+02  0.17054554508E+02  0.00000000000E+00 0.  1.
          2   -1    0    0  501    0  0.00000000000E+00 -0.00000000000E+00 -0.12070013536E+04  0.12070013536E+04  0.00000000000E+00 0.  1.
         36    2    1    2    0    0 -0.35527136788E-14  0.00000000000E+00 -0.11899467991E+04  0.12240559081E+04  0.28694856944E+03 0.  0.
         25    2    3    3    0    0 -0.16327686340E+02  0.60027709271E+02 -0.79758298233E+03  0.80770900061E+03  0.11128924808E+03 0.  0.
         25    2    3    3    0    0  0.16327686340E+02 -0.60027709271E+02 -0.39236381674E+03  0.41634690748E+03  0.12460121773E+03 0.  0.
          5    1    4    4  502    0  0.29040663093E+01  0.17645398833E+02 -0.69177134498E+03  0.69201840831E+03  0.47000000000E+01 0. -1.
         -5    1    4    4    0  502 -0.19231752649E+02  0.42382310437E+02 -0.10581163735E+03  0.11569059230E+03  0.47000000000E+01 0. -1.
          5    1    5    5  503    0  0.35835557434E+02  0.10464410890E+02 -0.34481787027E+02  0.51036993529E+02  0.47000000000E+01 0. -1.
         -5    1    5    5    0  503 -0.19507871094E+02 -0.70492120161E+02 -0.35788202971E+03  0.36530991395E+03  0.47000000000E+01 0. -1.
<mgrwt>
<rscale>  0 0.28694857E+03</rscale>
<asrwt>0</asrwt>
<pdfrwt beam="1">  1        2 0.18569256E+00 0.28694857E+03</pdfrwt>
<pdfrwt beam="2">  1       -2 0.26237770E-02 0.28694857E+03</pdfrwt>
<totfact> 0.10241385E+04</totfact>
</mgrwt>
</event>
<event>
 9    1  0.2098759E-002  0.2749341E+03  0.7818608E-02  0.1098488E+00
         -2   -1    0    0    0  501 -0.00000000000E+00  0.00000000000E+00  0.19987536889E+02  0.19987536889E+02  0.00000000000E+00 0. -1.
          2   -1    0    0  501    0  0.00000000000E+00 -0.00000000000E+00 -0.94544873535E+03  0.94544873535E+03  0.00000000000E+00 0. -1.
         36    2    1    2    0    0 -0.71054273576E-14  0.35527136788E-14 -0.92546119846E+03  0.96543627224E+03  0.27493411192E+03 0.  0.
         25    2    3    3    0    0 -0.22709868036E+02 -0.11701592765E+02 -0.27235819877E+03  0.29997646787E+03  0.12310250795E+03 0.  0.
         25    2    3    3    0    0  0.22709868036E+02  0.11701592765E+02 -0.65310299969E+03  0.66545980436E+03  0.12506221506E+03 0.  0.
          5    1    4    4  502    0  0.42718142615E+02  0.21709304151E+02 -0.14604730213E+03  0.15377918603E+03  0.47000000000E+01 0.  1.
         -5    1    4    4    0  502 -0.65428010652E+02 -0.33410896916E+02 -0.12631089663E+03  0.14619728185E+03  0.47000000000E+01 0.  1.
          5    1    5    5  503    0 -0.36627073824E+02 -0.34998306039E+02 -0.30669096440E+03  0.31088239192E+03  0.47000000000E+01 0.  1.
         -5    1    5    5    0  503  0.59336941860E+02  0.46699898804E+02 -0.34641203529E+03  0.35457741244E+03  0.47000000000E+01 0.  1.
<mgrwt>
<rscale>  0 0.27493411E+03</rscale>
<asrwt>0</asrwt>
<pdfrwt beam="1">  1        2 0.14545363E+00 0.27493411E+03</pdfrwt>
<pdfrwt beam="2">  1       -2 0.30750060E-02 0.27493411E+03</pdfrwt>
<totfact> 0.11562465E+04</totfact>
</mgrwt>
</event>
<event>
 9    1  0.2098759E-002  0.2726684E+03  0.7818608E-02  0.1099762E+00
          2   -1    0    0  501    0  0.00000000000E+00  0.00000000000E+00  0.19280132911E+04  0.19280132911E+04  0.00000000000E+00 0.  1.
         -2   -1    0    0    0  501 -0.00000000000E+00 -0.00000000000E+00 -0.96404991161E+01  0.96404991161E+01  0.00000000000E+00 0.  1.
         36    2    1    2    0    0  0.35527136788E-14  0.00000000000E+00  0.19183727920E+04  0.19376537902E+04  0.27266837315E+03 0.  0.
         25    2    3    3    0    0  0.16201215323E+02  0.45090091621E+02  0.64403801722E+03  0.65635859678E+03  0.11715820157E+03 0.  0.
         25    2    3    3    0    0 -0.16201215323E+02 -0.45090091621E+02  0.12743347747E+04  0.12812951934E+04  0.12446950962E+03 0.  0.
          5    1    4    4  502    0  0.12447310223E+02  0.17650383268E+02  0.15043312944E+02  0.26736918776E+02  0.47000000000E+01 0.  1.
         -5    1    4    4    0  502  0.37539050997E+01  0.27439708352E+02  0.62899470428E+03  0.62962167800E+03  0.47000000000E+01 0.  1.
          5    1    5    5  503    0  0.27906173706E+02  0.21868556580E+02  0.15457008695E+03  0.15865367969E+03  0.47000000000E+01 0.  1.
         -5    1    5    5    0  503 -0.44107389029E+02 -0.66958648201E+02  0.11197646878E+04  0.11226415137E+04  0.47000000000E+01 0.  1.
<mgrwt>
<rscale>  0 0.27266837E+03</rscale>
<asrwt>0</asrwt>
<pdfrwt beam="1">  1        2 0.29661712E+00 0.27266837E+03</pdfrwt>
<pdfrwt beam="2">  1       -2 0.14831552E-02 0.27266837E+03</pdfrwt>
<totfact> 0.97219348E+03</totfact>
</mgrwt>
</event>
<event>
 9    1  0.2098759E-002  0.2754699E+03  0.7818608E-02  0.1098189E+00
         -1   -1    0    0    0  501 -0.00000000000E+00  0.00000000000E+00  0.98424477415E+02  0.98424477415E+02  0.00000000000E+00 0. -1.
          1   -1    0    0  501    0  0.00000000000E+00 -0.00000000000E+00 -0.19274585451E+03  0.19274585451E+03  0.00000000000E+00 0. -1.
         36    2    1    2    0    0 -0.71054273576E-14  0.14210854715E-13 -0.94321377096E+02  0.29117033193E+03  0.27546985319E+03 0.  0.
         25    2    3    3    0    0  0.16103051367E+02 -0.57527150319E+02 -0.40000243411E+02  0.14459328684E+03  0.12545324961E+03 0.  0.
         25    2    3    3    0    0 -0.16103051367E+02  0.57527150319E+02 -0.54321133685E+02  0.14657704509E+03  0.12233300166E+03 0.  0.
          5    1    4    4  502    0  0.66696344390E+02 -0.22317745800E+02  0.85720166273E+00  0.70493325409E+02  0.47000000000E+01 0. -1.
         -5    1    4    4    0  502 -0.50593293024E+02 -0.35209404519E+02 -0.40857445074E+02  0.74099961427E+02  0.47000000000E+01 0. -1.
          5    1    5    5  503    0 -0.74392137448E+01  0.71268838331E+02  0.16569803588E+02  0.73696930798E+02  0.47000000000E+01 0.  1.
         -5    1    5    5    0  503 -0.86638376217E+01 -0.13741688012E+02 -0.70890937273E+02  0.72880114292E+02  0.47000000000E+01 0.  1.
<mgrwt>
<rscale>  0 0.27546985E+03</rscale>
<asrwt>0</asrwt>
<pdfrwt beam="1">  1        1 0.29653208E-01 0.27546985E+03</pdfrwt>
<pdfrwt beam="2">  1       -1 0.15142227E-01 0.27546985E+03</pdfrwt>
<totfact> 0.48344284E+03</totfact>
</mgrwt>
</event>
<event>
 9    1  0.2098759E-002  0.2746666E+03  0.7818608E-02  0.1098638E+00
          1   -1    0    0  501    0  0.00000000000E+00  0.00000000000E+00  0.14356900529E+04  0.14356900529E+04  0.00000000000E+00 0.  1.
         -1   -1    0    0    0  501 -0.00000000000E+00 -0.00000000000E+00 -0.13136843591E+02  0.13136843591E+02  0.00000000000E+00 0.  1.
         36    2    1    2    0    0  0.71054273576E-14  0.00000000000E+00  0.14225532093E+04  0.14488268965E+04  0.27466660278E+03 0.  0.
         25    2    3    3    0    0 -0.41231689187E+02  0.19476608202E+02  0.84646461139E+03  0.85730673816E+03  0.12803559851E+03 0.  0.
         25    2    3    3    0    0  0.41231689187E+02 -0.19476608202E+02  0.57608859794E+03  0.59152015836E+03  0.12624830537E+03 0.  0.
          5    1    4    4  502    0 -0.64247841034E+02  0.63918280408E+01  0.19860102850E+03  0.20888537303E+03  0.47000000000E+01 0. -1.
         -5    1    4    4    0  502  0.23016151847E+02  0.13084780161E+02  0.64786358289E+03  0.64842136513E+03  0.47000000000E+01 0. -1.
          5    1    5    5  503    0 -0.61623305211E+01  0.49146099678E+02  0.25001948360E+03  0.25492184216E+03  0.47000000000E+01 0. -1.
         -5    1    5    5    0  503  0.47394019708E+02 -0.68622707880E+02  0.32606911434E+03  0.33659831620E+03  0.47000000000E+01 0. -1.
<mgrwt>
<rscale>  0 0.27466660E+03</rscale>
<asrwt>0</asrwt>
<pdfrwt beam="1">  1        1 0.22087527E+00 0.27466660E+03</pdfrwt>
<pdfrwt beam="2">  1       -1 0.20210540E-02 0.27466660E+03</pdfrwt>
<totfact> 0.53333158E+03</totfact>
</mgrwt>
</event>
<event>
 9    1  0.2098759E-002  0.2750840E+03  0.7818608E-02  0.1098405E+00
          1   -1    0    0  501    0  0.00000000000E+00  0.00000000000E+00  0.28438370395E+03  0.28438370395E+03  0.00000000000E+00 0.  1.
         -1   -1    0    0    0  501 -0.00000000000E+00 -0.00000000000E+00 -0.66522078523E+02  0.66522078523E+02  0.00000000000E+00 0.  1.
         36    2    1    2    0    0  0.71054273576E-14  0.00000000000E+00  0.21786162543E+03  0.35090578247E+03  0.27508395144E+03 0.  0.
         25    2    3    3    0    0 -0.40800111027E+02 -0.33347588916E+02  0.10472193803E+03  0.17423281401E+03  0.12889405893E+03 0.  0.
         25    2    3    3    0    0  0.40800111027E+02  0.33347588916E+02  0.11313968740E+03  0.17667296846E+03  0.12504414490E+03 0.  0.
          5    1    4    4  502    0  0.25168258900E+02  0.23500870104E+02  0.74025580121E+02  0.81777800557E+02  0.47000000000E+01 0.  1.
         -5    1    4    4    0  502 -0.65968369926E+02 -0.56848459021E+02  0.30696357910E+02  0.92455013453E+02  0.47000000000E+01 0.  1.
          5    1    5    5  503    0  0.16957518882E+02 -0.15405726633E+02  0.11955604233E+03  0.12182212902E+03  0.47000000000E+01 0.  1.
         -5    1    5    5    0  503  0.23842592144E+02  0.48753315549E+02 -0.64163549367E+01  0.54850839446E+02  0.47000000000E+01 0.  1.
<mgrwt>
<rscale>  0 0.27508395E+03</rscale>
<asrwt>0</asrwt>
<pdfrwt beam="1">  1        1 0.43751338E-01 0.27508395E+03</pdfrwt>
<pdfrwt beam="2">  1       -1 0.10234166E-01 0.27508395E+03</pdfrwt>
<totfact> 0.54767101E+03</totfact>
</mgrwt>
</event>
<event>
 9    1  0.2098759E-002  0.2768309E+03  0.7818608E-02  0.1097433E+00
         -2   -1    0    0    0  501 -0.00000000000E+00  0.00000000000E+00  0.10024043806E+02  0.10024043806E+02  0.00000000000E+00 0. -1.
          2   -1    0    0  501    0  0.00000000000E+00 -0.00000000000E+00 -0.19112885516E+04  0.19112885516E+04  0.00000000000E+00 0. -1.
         36    2    1    2    0    0  0.00000000000E+00 -0.14210854715E-13 -0.19012645078E+04  0.19213125954E+04  0.27683092433E+03 0.  0.
         25    2    3    3    0    0  0.47490657369E+02 -0.65810524637E+02 -0.90238912521E+03  0.91276707237E+03  0.11068517247E+03 0.  0.
         25    2    3    3    0    0 -0.47490657369E+02  0.65810524637E+02 -0.99887538254E+03  0.10085455230E+04  0.11325040584E+03 0.  0.
          5    1    4    4  502    0  0.66626236725E+01 -0.25926083120E+02 -0.39312141392E+02  0.47792120700E+02  0.47000000000E+01 0. -1.
         -5    1    4    4    0  502  0.40828033697E+02 -0.39884441517E+02 -0.86307698382E+03  0.86497495167E+03  0.47000000000E+01 0. -1.
          5    1    5    5  503    0 -0.50422145057E+02 -0.15808875158E+02 -0.27569689069E+03  0.28075465941E+03  0.47000000000E+01 0.  1.
         -5    1    5    5    0  503  0.29314876883E+01  0.81619399795E+02 -0.72317849185E+03  0.72779086358E+03  0.47000000000E+01 0.  1.
<mgrwt>
<rscale>  0 0.27683092E+03</rscale>
<asrwt>0</asrwt>
<pdfrwt beam="1">  1        2 0.29404458E+00 0.27683092E+03</pdfrwt>
<pdfrwt beam="2">  1       -2 0.15421596E-02 0.27683092E+03</pdfrwt>
<totfact> 0.93717359E+03</totfact>
</mgrwt>
</event>
<event>
 9    1  0.2098759E-002  0.2750023E+03  0.7818608E-02  0.1098450E+00
         -2   -1    0    0    0  501 -0.00000000000E+00  0.00000000000E+00  0.31673553993E+02  0.31673553993E+02  0.00000000000E+00 0. -1.
          2   -1    0    0  501    0  0.00000000000E+00 -0.00000000000E+00 -0.59691960980E+03  0.59691960980E+03  0.00000000000E+00 0. -1.
         36    2    1    2    0    0  0.00000000000E+00  0.35527136788E-14 -0.56524605581E+03  0.62859316379E+03  0.27500229447E+03 0.  0.
         25    2    3    3    0    0  0.36759763047E+02  0.29469811264E+02 -0.35413141088E+03  0.37869314638E+03  0.12561724797E+03 0.  0.
         25    2    3    3    0    0 -0.36759763047E+02 -0.29469811264E+02 -0.21111464492E+03  0.24990001741E+03  0.12514341950E+03 0.  0.
          5    1    4    4  502    0 -0.43088437335E+02  0.31468424234E+02 -0.15967117170E+03  0.16841570066E+03  0.47000000000E+01 0.  1.
         -5    1    4    4    0  502  0.79848200382E+02 -0.19986129704E+01 -0.19446023918E+03  0.21027744572E+03  0.47000000000E+01 0.  1.
          5    1    5    5  503    0 -0.67388206900E+02 -0.19953181848E+02 -0.52091189810E+02  0.87606403596E+02  0.47000000000E+01 0.  1.
         -5    1    5    5    0  503  0.30628443854E+02 -0.95166294159E+01 -0.15902345511E+03  0.16229361381E+03  0.47000000000E+01 0.  1.
<mgrwt>
<rscale>  0 0.27500229E+03</rscale>
<asrwt>0</asrwt>
<pdfrwt beam="1">  1        2 0.91833780E-01 0.27500229E+03</pdfrwt>
<pdfrwt beam="2">  1       -2 0.48728548E-02 0.27500229E+03</pdfrwt>
<totfact> 0.10288529E+04</totfact>
</mgrwt>
</event>
<event>
 9    1  0.2098759E-002  0.2760821E+03  0.7818608E-02  0.1097848E+00
         -1   -1    0    0    0  501 -0.00000000000E+00  0.00000000000E+00  0.30955275507E+03  0.30955275507E+03  0.00000000000E+00 0. -1.
          1   -1    0    0  501    0  0.00000000000E+00 -0.00000000000E+00 -0.61557628920E+02  0.61557628920E+02  0.00000000000E+00 0. -1.
         36    2    1    2    0    0  0.35527136788E-14  0.00000000000E+00  0.24799512615E+03  0.37111038399E+03  0.27608211552E+03 0.  0.
         25    2    3    3    0    0 -0.90959916408E+01  0.54476245111E+02  0.18726081862E+03  0.23046826167E+03  0.12246880052E+03 0.  0.
         25    2    3    3    0    0  0.90959916408E+01 -0.54476245111E+02  0.60734307532E+02  0.14064212232E+03  0.11419786388E+03 0.  0.
          5    1    4    4  502    0  0.17639758281E+02 -0.28935830739E+02  0.15406912052E+02  0.37522077658E+02  0.47000000000E+01 0.  1.
         -5    1    4    4    0  502 -0.26735749922E+02  0.83412075850E+02  0.17185390657E+03  0.19294618401E+03  0.47000000000E+01 0.  1.
          5    1    5    5  503    0  0.25711072008E+02 -0.12690217835E+01  0.77860538781E+02  0.82140265031E+02  0.47000000000E+01 0.  1.
         -5    1    5    5    0  503 -0.16615080367E+02 -0.53207223328E+02 -0.17126231249E+02  0.58501857292E+02  0.47000000000E+01 0.  1.
<mgrwt>
<rscale>  0 0.27608212E+03</rscale>
<asrwt>0</asrwt>
<pdfrwt beam="1">  1        1 0.94704047E-02 0.27608212E+03</pdfrwt>
<pdfrwt beam="2">  1       -1 0.47623500E-01 0.27608212E+03</pdfrwt>
<totfact> 0.30943705E+03</totfact>
</mgrwt>
</event>
<event>
 9    1  0.2098759E-002  0.2750804E+03  0.7818608E-02  0.1098407E+00
         -2   -1    0    0    0  501 -0.00000000000E+00  0.00000000000E+00  0.69027796921E+01  0.69027796921E+01  0.00000000000E+00 0.  1.
          2   -1    0    0  501    0  0.00000000000E+00 -0.00000000000E+00 -0.27405346178E+04  0.27405346178E+04  0.00000000000E+00 0.  1.
         36    2    1    2    0    0  0.26645352591E-14  0.00000000000E+00 -0.27336318381E+04  0.27474373975E+04  0.27508040065E+03 0.  0.
         25    2    3    3    0    0 -0.32179173926E+01 -0.43044242639E+01 -0.75406657217E+03  0.76388526242E+03  0.12196481383E+03 0.  0.
         25    2    3    3    0    0  0.32179173926E+01  0.43044242639E+01 -0.19795652660E+04  0.19835521351E+04  0.12558482150E+03 0.  0.
          5    1    4    4  502    0  0.27127391688E+02  0.26895835209E+02 -0.84086593963E+02  0.92476627402E+02  0.47000000000E+01 0. -1.
         -5    1    4    4    0  502 -0.30345309081E+02 -0.31200259473E+02 -0.66997997821E+03  0.67140863502E+03  0.47000000000E+01 0. -1.
          5    1    5    5  503    0  0.60255543090E+01  0.62480736686E+02 -0.76648666215E+03  0.76906699514E+03  0.47000000000E+01 0.  1.
         -5    1    5    5    0  503 -0.28076369165E+01 -0.58176312423E+02 -0.12130786038E+04  0.12144851400E+04  0.47000000000E+01 0.  1.
<mgrwt>
<rscale>  0 0.27508040E+03</rscale>
<asrwt>0</asrwt>
<pdfrwt beam="1">  1        2 0.42162051E+00 0.27508040E+03</pdfrwt>
<pdfrwt beam="2">  1       -2 0.10619666E-02 0.27508040E+03</pdfrwt>
<totfact> 0.57542950E+03</totfact>
</mgrwt>
</event>
<event>
 9    1  0.2098759E-002  0.2758253E+03  0.7818608E-02  0.1097991E+00
         -2   -1    0    0    0  501 -0.00000000000E+00  0.00000000000E+00  0.51014682014E+02  0.51014682014E+02  0.00000000000E+00 0. -1.
          2   -1    0    0  501    0  0.00000000000E+00 -0.00000000000E+00 -0.37283190900E+03  0.37283190900E+03  0.00000000000E+00 0. -1.
         36    2    1    2    0    0  0.14210854715E-13  0.35527136788E-14 -0.32181722699E+03  0.42384659101E+03  0.27582531633E+03 0.  0.
         25    2    3    3    0    0  0.41162781895E+02  0.28324586135E+02 -0.19524739911E+03  0.23716967973E+03  0.12502501082E+03 0.  0.
         25    2    3    3    0    0 -0.41162781895E+02 -0.28324586135E+02 -0.12656982788E+03  0.18667691129E+03  0.12779550495E+03 0.  0.
          5    1    4    4  502    0  0.68038566849E+01  0.55165647469E+02 -0.24578345263E+02  0.60956756659E+02  0.47000000000E+01 0. -1.
         -5    1    4    4    0  502  0.34358925210E+02 -0.26841061334E+02 -0.17066905385E+03  0.17621292307E+03  0.47000000000E+01 0. -1.
          5    1    5    5  503    0  0.24206158196E+02  0.32216277278E+02 -0.13740093175E+02  0.42833477289E+02  0.47000000000E+01 0.  1.
         -5    1    5    5    0  503 -0.65368940091E+02 -0.60540863413E+02 -0.11282973470E+03  0.14384343400E+03  0.47000000000E+01 0.  1.
<mgrwt>
<rscale>  0 0.27582532E+03</rscale>
<asrwt>0</asrwt>
<pdfrwt beam="1">  1        2 0.57358754E-01 0.27582532E+03</pdfrwt>
<pdfrwt beam="2">  1       -2 0.78484128E-02 0.27582532E+03</pdfrwt>
<totfact> 0.83463698E+03</totfact>
</mgrwt>
</event>
<event>
 9    1  0.2098759E-002  0.2714875E+03  0.7818608E-02  0.1100431E+00
          2   -1    0    0  501    0  0.00000000000E+00  0.00000000000E+00  0.15782122989E+04  0.15782122989E+04  0.00000000000E+00 0. -1.
         -2   -1    0    0    0  501 -0.00000000000E+00 -0.00000000000E+00 -0.11675464423E+02  0.11675464423E+02  0.00000000000E+00 0. -1.
         36    2    1    2    0    0  0.00000000000E+00  0.00000000000E+00  0.15665368345E+04  0.15898877633E+04  0.27148746967E+03 0.  0.
         25    2    3    3    0    0  0.12884284454E+02 -0.18390196350E+02  0.10919397118E+04  0.10989399967E+04  0.12178907173E+03 0.  0.
         25    2    3    3    0    0 -0.12884284454E+02  0.18390196350E+02  0.47459712268E+03  0.49094776664E+03  0.12362474109E+03 0.  0.
          5    1    4    4  502    0  0.49779921890E+02 -0.20809072494E+01  0.94965592472E+03  0.95097362537E+03  0.47000000000E+01 0. -1.
         -5    1    4    4    0  502 -0.36895637436E+02 -0.16309289101E+02  0.14228378711E+03  0.14796637133E+03  0.47000000000E+01 0. -1.
          5    1    5    5  503    0 -0.15104518119E+02  0.75880776236E+01  0.47812884783E+03  0.47845063541E+03  0.47000000000E+01 0.  1.
         -5    1    5    5    0  503  0.22202336644E+01  0.10802118726E+02 -0.35317251572E+01  0.12497131234E+02  0.47000000000E+01 0.  1.
<mgrwt>
<rscale>  0 0.27148747E+03</rscale>
<asrwt>0</asrwt>
<pdfrwt beam="1">  1        2 0.24280172E+00 0.27148747E+03</pdfrwt>
<pdfrwt beam="2">  1       -2 0.17962265E-02 0.27148747E+03</pdfrwt>
<totfact> 0.11219225E+04</totfact>
</mgrwt>
</event>
<event>
 9    1  0.2098759E-002  0.2744114E+03  0.7818608E-02  0.1098781E+00
         -1   -1    0    0    0  501 -0.00000000000E+00  0.00000000000E+00  0.15753595666E+02  0.15753595666E+02  0.00000000000E+00 0. -1.
          1   -1    0    0  501    0  0.00000000000E+00 -0.00000000000E+00 -0.11949905088E+04  0.11949905088E+04  0.00000000000E+00 0. -1.
         36    2    1    2    0    0  0.14210854715E-13  0.00000000000E+00 -0.11792369132E+04  0.12107441045E+04  0.27441135035E+03 0.  0.
         25    2    3    3    0    0 -0.59208301642E+02 -0.18448545066E+02 -0.56588003167E+03  0.58263749349E+03  0.12409781136E+03 0.  0.
         25    2    3    3    0    0  0.59208301642E+02  0.18448545066E+02 -0.61335688149E+03  0.62810661100E+03  0.12027168790E+03 0.  0.
          5    1    4    4  502    0  0.26673897953E+02 -0.38991052216E+02 -0.25700639273E+03  0.26135450042E+03  0.47000000000E+01 0. -1.
         -5    1    4    4    0  502 -0.85882199595E+02  0.20542507150E+02 -0.30887363894E+03  0.32128299307E+03  0.47000000000E+01 0. -1.
          5    1    5    5  503    0  0.19960092985E+02 -0.42085476065E+02 -0.10948058054E+03  0.11907006392E+03  0.47000000000E+01 0.  1.
         -5    1    5    5    0  503  0.39248208658E+02  0.60534021132E+02 -0.50387630095E+03  0.50903654708E+03  0.47000000000E+01 0.  1.
<mgrwt>
<rscale>  0 0.27441135E+03</rscale>
<asrwt>0</asrwt>
<pdfrwt beam="1">  1        1 0.18384474E+00 0.27441135E+03</pdfrwt>
<pdfrwt beam="2">  1       -1 0.24236294E-02 0.27441135E+03</pdfrwt>
<totfact> 0.59660717E+03</totfact>
</mgrwt>
</event>
<event>
 9    1  0.2098759E-002  0.2740671E+03  0.7818608E-02  0.1098974E+00
         -2   -1    0    0    0  501 -0.00000000000E+00  0.00000000000E+00  0.30495063196E+02  0.30495063196E+02  0.00000000000E+00 0.  1.
          2   -1    0    0  501    0  0.00000000000E+00 -0.00000000000E+00 -0.61577826692E+03  0.61577826692E+03  0.00000000000E+00 0.  1.
         36    2    1    2    0    0  0.00000000000E+00  0.00000000000E+00 -0.58528320372E+03  0.64627333011E+03  0.27406712436E+03 0.  0.
         25    2    3    3    0    0 -0.27447209580E+02  0.58926842838E+02 -0.32710902510E+03  0.35434794707E+03  0.11973483691E+03 0.  0.
         25    2    3    3    0    0  0.27447209580E+02 -0.58926842838E+02 -0.25817417862E+03  0.29192538304E+03  0.11975308196E+03 0.  0.
          5    1    4    4  502    0  0.26606528556E+02  0.64557926599E+02 -0.10909106163E+03  0.12960934756E+03  0.47000000000E+01 0.  1.
         -5    1    4    4    0  502 -0.54053738136E+02 -0.56310837615E+01 -0.21801796347E+03  0.22473859951E+03  0.47000000000E+01 0.  1.
          5    1    5    5  503    0  0.28901757405E+01 -0.12392835442E+02 -0.23302352845E+03  0.23341805906E+03  0.47000000000E+01 0.  1.
         -5    1    5    5    0  503  0.24557033839E+02 -0.46534007396E+02 -0.25150650171E+02  0.58507323981E+02  0.47000000000E+01 0.  1.
<mgrwt>
<rscale>  0 0.27406712E+03</rscale>
<asrwt>0</asrwt>
<pdfrwt beam="1">  1        2 0.94735104E-01 0.27406712E+03</pdfrwt>
<pdfrwt beam="2">  1       -2 0.46915489E-02 0.27406712E+03</pdfrwt>
<totfact> 0.10508391E+04</totfact>
</mgrwt>
</event>
<event>
 9    1  0.2098759E-002  0.2779931E+03  0.7818608E-02  0.1096790E+00
          1   -1    0    0  501    0  0.00000000000E+00  0.00000000000E+00  0.51894043343E+02  0.51894043343E+02  0.00000000000E+00 0.  1.
         -1   -1    0    0    0  501 -0.00000000000E+00 -0.00000000000E+00 -0.37229777541E+03  0.37229777541E+03  0.00000000000E+00 0.  1.
         36    2    1    2    0    0  0.35527136788E-14  0.00000000000E+00 -0.32040373207E+03  0.42419181876E+03  0.27799307109E+03 0.  0.
         25    2    3    3    0    0  0.49632126480E+01 -0.19459258630E+02 -0.82927494327E+02  0.15300274899E+03  0.12700226634E+03 0.  0.
         25    2    3    3    0    0 -0.49632126480E+01  0.19459258630E+02 -0.23747623774E+03  0.27118906977E+03  0.12940344602E+03 0.  0.
          5    1    4    4  502    0 -0.55841199792E+02  0.13489903853E+02 -0.25677881663E+02  0.63100401797E+02  0.47000000000E+01 0.  1.
         -5    1    4    4    0  502  0.60804412440E+02 -0.32949162483E+02 -0.57249612664E+02  0.89902347192E+02  0.47000000000E+01 0.  1.
          5    1    5    5  503    0  0.30600608142E+02  0.31253305225E+02 -0.22806887981E+03  0.23227283578E+03  0.47000000000E+01 0.  1.
         -5    1    5    5    0  503 -0.35563820790E+02 -0.11794046595E+02 -0.94073579389E+01  0.38916233987E+02  0.47000000000E+01 0.  1.
<mgrwt>
<rscale>  0 0.27799307E+03</rscale>
<asrwt>0</asrwt>
<pdfrwt beam="1">  1        1 0.79836988E-02 0.27799307E+03</pdfrwt>
<pdfrwt beam="2">  1       -1 0.57276582E-01 0.27799307E+03</pdfrwt>
<totfact> 0.27637732E+03</totfact>
</mgrwt>
</event>
<event>
 9    1  0.2098759E-002  0.2673684E+03  0.7818608E-02  0.1102795E+00
          2   -1    0    0  501    0  0.00000000000E+00  0.00000000000E+00  0.57269669708E+03  0.57269669708E+03  0.00000000000E+00 0.  1.
         -2   -1    0    0    0  501 -0.00000000000E+00 -0.00000000000E+00 -0.31205806683E+02  0.31205806683E+02  0.00000000000E+00 0.  1.
         36    2    1    2    0    0 -0.35527136788E-14  0.00000000000E+00  0.54149089040E+03  0.60390250377E+03  0.26736837821E+03 0.  0.
         25    2    3    3    0    0  0.12952069263E+02 -0.69174841755E+02  0.23707323532E+03  0.27454065949E+03  0.11923061677E+03 0.  0.
         25    2    3    3    0    0 -0.12952069263E+02  0.69174841755E+02  0.30441765508E+03  0.32936184428E+03  0.10419309437E+03 0.  0.
          5    1    4    4  502    0  0.42181035412E+02 -0.75348767564E+02  0.22659291229E+03  0.24253476951E+03  0.47000000000E+01 0.  1.
         -5    1    4    4    0  502 -0.29228966149E+02  0.61739258096E+01  0.10480323029E+02  0.32005889971E+02  0.47000000000E+01 0.  1.
          5    1    5    5  503    0 -0.12667745979E+02  0.73402165265E+02  0.31123589770E+03  0.32005971892E+03  0.47000000000E+01 0. -1.
         -5    1    5    5    0  503 -0.28432328362E+00 -0.42273235106E+01 -0.68182426249E+01  0.93021253638E+01  0.47000000000E+01 0. -1.
<mgrwt>
<rscale>  0 0.26736838E+03</rscale>
<asrwt>0</asrwt>
<pdfrwt beam="1">  1        2 0.88107176E-01 0.26736838E+03</pdfrwt>
<pdfrwt beam="2">  1       -2 0.48008938E-02 0.26736838E+03</pdfrwt>
<totfact> 0.11026397E+04</totfact>
</mgrwt>
</event>
<event>
 9    1  0.2098759E-002  0.2610793E+03  0.7818608E-02  0.1106496E+00
         -2   -1    0    0    0  501 -0.00000000000E+00  0.00000000000E+00  0.20634921709E+03  0.20634921709E+03  0.00000000000E+00 0.  1.
          2   -1    0    0  501    0  0.00000000000E+00 -0.00000000000E+00 -0.82581381031E+02  0.82581381031E+02  0.00000000000E+00 0.  1.
         36    2    1    2    0    0  0.00000000000E+00  0.35527136788E-14  0.12376783606E+03  0.28893059812E+03  0.26107932375E+03 0.  0.
         25    2    3    3    0    0 -0.38770137960E+02 -0.15727937391E+01  0.84710734051E+02  0.15991156148E+03  0.12996230897E+03 0.  0.
         25    2    3    3    0    0  0.38770137960E+02  0.15727937391E+01  0.39057102010E+02  0.12901903664E+03  0.11668272075E+03 0.  0.
          5    1    4    4  502    0  0.36819538551E+02 -0.30894232824E+02  0.55584080814E+02  0.73632955128E+02  0.47000000000E+01 0. -1.
         -5    1    4    4    0  502 -0.75589676511E+02  0.29321439085E+02  0.29126653237E+02  0.86278606351E+02  0.47000000000E+01 0. -1.
          5    1    5    5  503    0 -0.20471355427E+01  0.52270806313E+02  0.36030322409E+02  0.63692245127E+02  0.47000000000E+01 0. -1.
         -5    1    5    5    0  503  0.40817273502E+02 -0.50698012574E+02  0.30267796019E+01  0.65326791516E+02  0.47000000000E+01 0. -1.
<mgrwt>
<rscale>  0 0.26107932E+03</rscale>
<asrwt>0</asrwt>
<pdfrwt beam="1">  1        2 0.12704828E-01 0.26107932E+03</pdfrwt>
<pdfrwt beam="2">  1       -2 0.31746033E-01 0.26107932E+03</pdfrwt>
<totfact> 0.43531005E+03</totfact>
</mgrwt>
</event>
<event>
 9    1  0.2098759E-002  0.2757928E+03  0.7818608E-02  0.1098009E+00
          2   -1    0    0  501    0  0.00000000000E+00  0.00000000000E+00  0.11242490349E+04  0.11242490349E+04  0.00000000000E+00 0. -1.
         -2   -1    0    0    0  501 -0.00000000000E+00 -0.00000000000E+00 -0.16913881423E+02  0.16913881423E+02  0.00000000000E+00 0. -1.
         36    2    1    2    0    0  0.35527136788E-14  0.71054273576E-14  0.11073351535E+04  0.11411629163E+04  0.27579278356E+03 0.  0.
         25    2    3    3    0    0 -0.15427410406E+02 -0.22781069592E+02  0.34604309963E+03  0.36910419434E+03  0.12543961637E+03 0.  0.
         25    2    3    3    0    0  0.15427410406E+02  0.22781069592E+02  0.76129205383E+03  0.77205872196E+03  0.12550735761E+03 0.  0.
          5    1    4    4  502    0  0.15889775103E+02  0.23627712008E+02  0.28376272027E+03  0.28522644538E+03  0.47000000000E+01 0.  1.
         -5    1    4    4    0  502 -0.31317185509E+02 -0.46408781599E+02  0.62280379356E+02  0.83877748960E+02  0.47000000000E+01 0.  1.
          5    1    5    5  503    0  0.46913776514E+02  0.50987038854E+02  0.26503000980E+03  0.27397732872E+03  0.47000000000E+01 0.  1.
         -5    1    5    5    0  503 -0.31486366108E+02 -0.28205969262E+02  0.49626204403E+03  0.49808139324E+03  0.47000000000E+01 0.  1.
<mgrwt>
<rscale>  0 0.27579278E+03</rscale>
<asrwt>0</asrwt>
<pdfrwt beam="1">  1        2 0.17296133E+00 0.27579278E+03</pdfrwt>
<pdfrwt beam="2">  1       -2 0.26021365E-02 0.27579278E+03</pdfrwt>
<totfact> 0.11556303E+04</totfact>
</mgrwt>
</event>
<event>
 9    1  0.2098759E-002  0.2796784E+03  0.7818608E-02  0.1095865E+00
          1   -1    0    0  501    0  0.00000000000E+00  0.00000000000E+00  0.14524079041E+02  0.14524079041E+02  0.00000000000E+00 0. -1.
         -1   -1    0    0    0  501 -0.00000000000E+00 -0.00000000000E+00 -0.13463846621E+04  0.13463846621E+04  0.00000000000E+00 0. -1.
         36    2    1    2    0    0  0.17763568394E-14  0.00000000000E+00 -0.13318605831E+04  0.13609087412E+04  0.27967836707E+03 0.  0.
         25    2    3    3    0    0 -0.98753280731E+01 -0.48680734807E+02 -0.67158659519E+03  0.68662395609E+03  0.13400211262E+03 0.  0.
         25    2    3    3    0    0  0.98753280731E+01  0.48680734807E+02 -0.66027398791E+03  0.67428478510E+03  0.12740053475E+03 0.  0.
          5    1    4    4  502    0  0.18581536785E+02 -0.16759600785E+02 -0.16975986921E+02  0.30601174155E+02  0.47000000000E+01 0. -1.
         -5    1    4    4    0  502 -0.28456864858E+02 -0.31921134022E+02 -0.65461060827E+03  0.65602278194E+03  0.47000000000E+01 0. -1.
          5    1    5    5  503    0  0.13956215838E+02  0.27057381587E+02 -0.64784869597E+03  0.64858068174E+03  0.47000000000E+01 0. -1.
         -5    1    5    5    0  503 -0.40808877648E+01  0.21623353220E+02 -0.12425291942E+02  0.25704103355E+02  0.47000000000E+01 0. -1.
<mgrwt>
<rscale>  0 0.27967837E+03</rscale>
<asrwt>0</asrwt>
<pdfrwt beam="1">  1        1 0.22344741E-02 0.27967837E+03</pdfrwt>
<pdfrwt beam="2">  1       -1 0.20713606E+00 0.27967837E+03</pdfrwt>
<totfact> 0.77402675E+02</totfact>
</mgrwt>
</event>
<event>
 9    1  0.2098759E-002  0.2748204E+03  0.7818608E-02  0.1098552E+00
         -2   -1    0    0    0  501 -0.00000000000E+00  0.00000000000E+00  0.71526152025E+02  0.71526152025E+02  0.00000000000E+00 0.  1.
          2   -1    0    0  501    0  0.00000000000E+00 -0.00000000000E+00 -0.26398128659E+03  0.26398128659E+03  0.00000000000E+00 0.  1.
         36    2    1    2    0    0  0.00000000000E+00 -0.71054273576E-14 -0.19245513457E+03  0.33550743862E+03  0.27482041872E+03 0.  0.
         25    2    3    3    0    0 -0.24035909479E+02 -0.55797749532E+02 -0.84876032946E+02  0.16057370491E+03  0.12201991617E+03 0.  0.
         25    2    3    3    0    0  0.24035909479E+02  0.55797749532E+02 -0.10757910162E+03  0.17493373370E+03  0.12384439545E+03 0.  0.
          5    1    4    4  502    0 -0.42662993770E+02  0.12448165918E+02 -0.77277792134E+02  0.89269451826E+02  0.47000000000E+01 0. -1.
         -5    1    4    4    0  502  0.18627084291E+02 -0.68245915450E+02 -0.75982408116E+01  0.71304253086E+02  0.47000000000E+01 0. -1.
          5    1    5    5  503    0 -0.38115067678E+02  0.58024201560E+02 -0.81948220625E+02  0.10750426603E+03  0.47000000000E+01 0.  1.
         -5    1    5    5    0  503  0.62150977158E+02 -0.22264520286E+01 -0.25630880994E+02  0.67429467674E+02  0.47000000000E+01 0.  1.
<mgrwt>
<rscale>  0 0.27482042E+03</rscale>
<asrwt>0</asrwt>
<pdfrwt beam="1">  1        2 0.40612506E-01 0.27482042E+03</pdfrwt>
<pdfrwt beam="2">  1       -2 0.11004023E-01 0.27482042E+03</pdfrwt>
<totfact> 0.70958564E+03</totfact>
</mgrwt>
</event>
<event>
 9    1  0.2098759E-002  0.2746547E+03  0.7818608E-02  0.1098645E+00
         -2   -1    0    0    0  501 -0.00000000000E+00  0.00000000000E+00  0.63802046021E+01  0.63802046021E+01  0.00000000000E+00 0. -1.
          2   -1    0    0  501    0  0.00000000000E+00 -0.00000000000E+00 -0.29558298378E+04  0.29558298378E+04  0.00000000000E+00 0. -1.
         36    2    1    2    0    0  0.35527136788E-14  0.00000000000E+00 -0.29494496332E+04  0.29622100424E+04  0.27465468599E+03 0.  0.
         25    2    3    3    0    0 -0.19467152729E+02 -0.34759644289E+02 -0.11132384330E+04  0.11210858876E+04  0.12627967239E+03 0.  0.
         25    2    3    3    0    0  0.19467152729E+02  0.34759644289E+02 -0.18362112002E+04  0.18411241548E+04  0.12837203326E+03 0.  0.
          5    1    4    4  502    0  0.39761705813E+01  0.46885622585E+02 -0.41301097967E+03  0.41570931054E+03  0.47000000000E+01 0.  1.
         -5    1    4    4    0  502 -0.23443323311E+02 -0.81645266874E+02 -0.70022745336E+03  0.70537657705E+03  0.47000000000E+01 0.  1.
          5    1    5    5  503    0  0.53557965266E+02 -0.90799203014E+01 -0.14378151013E+04  0.14388485869E+04  0.47000000000E+01 0. -1.
         -5    1    5    5    0  503 -0.34090812536E+02  0.43839564590E+02 -0.39839609888E+03  0.40227556789E+03  0.47000000000E+01 0. -1.
<mgrwt>
<rscale>  0 0.27465469E+03</rscale>
<asrwt>0</asrwt>
<pdfrwt beam="1">  1        2 0.45474241E+00 0.27465469E+03</pdfrwt>
<pdfrwt beam="2">  1       -2 0.98157133E-03 0.27465469E+03</pdfrwt>
<totfact> 0.48468259E+03</totfact>
</mgrwt>
</event>
<event>
 9    1  0.2098759E-002  0.2740492E+03  0.7818608E-02  0.1098984E+00
         -1   -1    0    0    0  501 -0.00000000000E+00  0.00000000000E+00  0.92095528530E+01  0.92095528530E+01  0.00000000000E+00 0.  1.
          1   -1    0    0  501    0  0.00000000000E+00 -0.00000000000E+00 -0.20387244900E+04  0.20387244900E+04  0.00000000000E+00 0.  1.
         36    2    1    2    0    0 -0.35527136788E-14 -0.35527136788E-14 -0.20295149371E+04  0.20479340428E+04  0.27404919955E+03 0.  0.
         25    2    3    3    0    0 -0.31462094855E+02  0.21078203181E+02 -0.10013780247E+04  0.10106182375E+04  0.13098518862E+03 0.  0.
         25    2    3    3    0    0  0.31462094855E+02 -0.21078203181E+02 -0.10281369124E+04  0.10373158053E+04  0.13237981398E+03 0.  0.
          5    1    4    4  502    0  0.61418415312E+01  0.68962011050E+02 -0.38331376711E+03  0.38954462548E+03  0.47000000000E+01 0.  1.
         -5    1    4    4    0  502 -0.37603936386E+02 -0.47883807869E+02 -0.61806425758E+03  0.62107361205E+03  0.47000000000E+01 0.  1.
          5    1    5    5  503    0 -0.46701071024E+02 -0.34132551320E+02 -0.40246460675E+03  0.40662743486E+03  0.47000000000E+01 0. -1.
         -5    1    5    5    0  503  0.78163165879E+02  0.13054348139E+02 -0.62567230569E+03  0.63068837045E+03  0.47000000000E+01 0. -1.
<mgrwt>
<rscale>  0 0.27404920E+03</rscale>
<asrwt>0</asrwt>
<pdfrwt beam="1">  1        1 0.31365019E+00 0.27404920E+03</pdfrwt>
<pdfrwt beam="2">  1       -1 0.14168531E-02 0.27404920E+03</pdfrwt>
<totfact> 0.36108184E+03</totfact>
</mgrwt>
</event>
<event>
 9    1  0.2098759E-002  0.2743061E+03  0.7818608E-02  0.1098840E+00
          1   -1    0    0  501    0  0.00000000000E+00  0.00000000000E+00  0.24848944020E+04  0.24848944020E+04  0.00000000000E+00 0.  1.
         -1   -1    0    0    0  501 -0.00000000000E+00 -0.00000000000E+00 -0.75701258988E+01  0.75701258988E+01  0.00000000000E+00 0.  1.
         36    2    1    2    0    0  0.00000000000E+00  0.00000000000E+00  0.24773242761E+04  0.24924645279E+04  0.27430613167E+03 0.  0.
         25    2    3    3    0    0 -0.27249003540E+02 -0.44104372715E+02  0.14752887515E+04  0.14814168734E+04  0.12422297972E+03 0.  0.
         25    2    3    3    0    0  0.27249003540E+02  0.44104372715E+02  0.10020355247E+04  0.10110476545E+04  0.12431598111E+03 0.  0.
          5    1    4    4  502    0 -0.24170646535E+02  0.29827485751E+01  0.54970898359E+02  0.60307599931E+02  0.47000000000E+01 0. -1.
         -5    1    4    4    0  502 -0.30783570053E+01 -0.47087121290E+02  0.14203178531E+04  0.14211092735E+04  0.47000000000E+01 0. -1.
          5    1    5    5  503    0  0.62220451064E+02 -0.10747846147E+02  0.34320420542E+03  0.34899587010E+03  0.47000000000E+01 0.  1.
         -5    1    5    5    0  503 -0.34971447524E+02  0.54852218862E+02  0.65883131925E+03  0.66205178444E+03  0.47000000000E+01 0.  1.
<mgrwt>
<rscale>  0 0.27430613E+03</rscale>
<asrwt>0</asrwt>
<pdfrwt beam="1">  1        1 0.38229080E+00 0.27430613E+03</pdfrwt>
<pdfrwt beam="2">  1       -1 0.11646367E-02 0.27430613E+03</pdfrwt>
<totfact> 0.24474629E+03</totfact>
</mgrwt>
</event>
<event>
 9    1  0.2098759E-002  0.2751823E+03  0.7818608E-02  0.1098350E+00
          1   -1    0    0  501    0  0.00000000000E+00  0.00000000000E+00  0.18047253612E+03  0.18047253612E+03  0.00000000000E+00 0. -1.
         -1   -1    0    0    0  501 -0.00000000000E+00 -0.00000000000E+00 -0.10489865950E+03  0.10489865950E+03  0.00000000000E+00 0. -1.
         36    2    1    2    0    0 -0.88817841970E-15  0.71054273576E-14  0.75573876625E+02  0.28537119562E+03  0.27518231859E+03 0.  0.
         25    2    3    3    0    0 -0.69599287747E+01 -0.49486029912E+02  0.84911406091E+01  0.13187130154E+03  0.12174002192E+03 0.  0.
         25    2    3    3    0    0  0.69599287747E+01  0.49486029912E+02  0.67082736015E+02  0.15349989408E+03  0.12870437540E+03 0.  0.
          5    1    4    4  502    0 -0.13675677126E+02  0.39136867395E+02  0.98083435979E+01  0.42860379589E+02  0.47000000000E+01 0.  1.
         -5    1    4    4    0  502  0.67157483517E+01 -0.88622897307E+02 -0.13172029888E+01  0.89010921952E+02  0.47000000000E+01 0.  1.
          5    1    5    5  503    0  0.36365525362E+02  0.33842671021E+01  0.87507279254E+02  0.94939552458E+02  0.47000000000E+01 0.  1.
         -5    1    5    5    0  503 -0.29405596587E+02  0.46101762809E+02 -0.20424543238E+02  0.58560341625E+02  0.47000000000E+01 0.  1.
<mgrwt>
<rscale>  0 0.27518232E+03</rscale>
<asrwt>0</asrwt>
<pdfrwt beam="1">  1        1 0.27765006E-01 0.27518232E+03</pdfrwt>
<pdfrwt beam="2">  1       -1 0.16138255E-01 0.27518232E+03</pdfrwt>
<totfact> 0.47468907E+03</totfact>
</mgrwt>
</event>
<event>
 9    1  0.2098759E-002  0.2745466E+03  0.7818608E-02  0.1098705E+00
         -3   -1    0    0    0  501 -0.00000000000E+00  0.00000000000E+00  0.48226158467E+02  0.48226158467E+02  0.00000000000E+00 0.  1.
          3   -1    0    0  501    0  0.00000000000E+00 -0.00000000000E+00 -0.39074130659E+03  0.39074130659E+03  0.00000000000E+00 0.  1.
         36    2    1    2    0    0 -0.35527136788E-14  0.71054273576E-14 -0.34251514813E+03  0.43896746506E+03  0.27454655104E+03 0.  0.
         25    2    3    3    0    0  0.10196815396E+02 -0.54067665352E+02 -0.18968320744E+03  0.23333513968E+03  0.12425087824E+03 0.  0.
         25    2    3    3    0    0 -0.10196815396E+02  0.54067665352E+02 -0.15283194068E+03  0.20563232538E+03  0.12609426500E+03 0.  0.
          5    1    4    4  502    0  0.66016240816E+02 -0.35508819849E+02 -0.12456361179E+03  0.14545516052E+03  0.47000000000E+01 0. -1.
         -5    1    4    4    0  502 -0.55819425419E+02 -0.18558845504E+02 -0.65119595651E+02  0.87879979167E+02  0.47000000000E+01 0. -1.
          5    1    5    5  503    0 -0.15203325216E+02  0.33830474362E+02  0.12120053216E+02  0.39301752927E+02  0.47000000000E+01 0. -1.
         -5    1    5    5    0  503  0.50065098199E+01  0.20237190991E+02 -0.16495199390E+03  0.16633057245E+03  0.47000000000E+01 0. -1.
<mgrwt>
<rscale>  0 0.27454655E+03</rscale>
<asrwt>0</asrwt>
<pdfrwt beam="1">  1        3 0.60114045E-01 0.27454655E+03</pdfrwt>
<pdfrwt beam="2">  1       -3 0.74194093E-02 0.27454655E+03</pdfrwt>
<totfact> 0.84128981E+02</totfact>
</mgrwt>
</event>
<event>
 9    1  0.2098759E-002  0.2741625E+03  0.7818608E-02  0.1098921E+00
          2   -1    0    0  501    0  0.00000000000E+00  0.00000000000E+00  0.44955288706E+03  0.44955288706E+03  0.00000000000E+00 0.  1.
         -2   -1    0    0    0  501 -0.00000000000E+00 -0.00000000000E+00 -0.41799919994E+02  0.41799919994E+02  0.00000000000E+00 0.  1.
         36    2    1    2    0    0  0.00000000000E+00  0.00000000000E+00  0.40775296706E+03  0.49135280705E+03  0.27416254093E+03 0.  0.
         25    2    3    3    0    0  0.16116295946E+02  0.38163640741E+02  0.18344350849E+03  0.22414202876E+03  0.12195052184E+03 0.  0.
         25    2    3    3    0    0 -0.16116295946E+02 -0.38163640741E+02  0.22430945857E+03  0.26721077829E+03  0.13917854850E+03 0.  0.
          5    1    4    4  502    0 -0.26197780771E+02  0.35702096125E+02  0.17511824121E+03  0.18069159302E+03  0.47000000000E+01 0. -1.
         -5    1    4    4    0  502  0.42314076717E+02  0.24615446158E+01  0.83252672856E+01  0.43450435737E+02  0.47000000000E+01 0. -1.
          5    1    5    5  503    0 -0.68262323281E+01 -0.88995414099E+02  0.17021015647E+03  0.19225079595E+03  0.47000000000E+01 0. -1.
         -5    1    5    5    0  503 -0.92900636181E+01  0.50831773359E+02  0.54099302100E+02  0.74959982341E+02  0.47000000000E+01 0. -1.
<mgrwt>
<rscale>  0 0.27416254E+03</rscale>
<asrwt>0</asrwt>
<pdfrwt beam="1">  1        2 0.69161979E-01 0.27416254E+03</pdfrwt>
<pdfrwt beam="2">  1       -2 0.64307572E-02 0.27416254E+03</pdfrwt>
<totfact> 0.92670444E+03</totfact>
</mgrwt>
</event>
<event>
 9    1  0.2098759E-002  0.2749922E+03  0.7818608E-02  0.1098456E+00
         -2   -1    0    0    0  501 -0.00000000000E+00  0.00000000000E+00  0.33433417220E+02  0.33433417220E+02  0.00000000000E+00 0. -1.
          2   -1    0    0  501    0  0.00000000000E+00 -0.00000000000E+00 -0.56545769478E+03  0.56545769478E+03  0.00000000000E+00 0. -1.
         36    2    1    2    0    0  0.00000000000E+00 -0.71054273576E-14 -0.53202427756E+03  0.59889111200E+03  0.27499224011E+03 0.  0.
         25    2    3    3    0    0 -0.24796411149E+02  0.49860868469E+02 -0.21785593137E+03  0.25575975088E+03  0.12186416670E+03 0.  0.
         25    2    3    3    0    0  0.24796411149E+02 -0.49860868469E+02 -0.31416834620E+03  0.34313136113E+03  0.12623950660E+03 0.  0.
          5    1    4    4  502    0 -0.45014865984E+02  0.18465443240E+02 -0.17531402238E+02  0.51930249547E+02  0.47000000000E+01 0.  1.
         -5    1    4    4    0  502  0.20218454835E+02  0.31395425229E+02 -0.20032452913E+03  0.20382950133E+03  0.47000000000E+01 0.  1.
          5    1    5    5  503    0  0.55182156804E+02  0.15954401544E+02 -0.19712215100E+03  0.20537489080E+03  0.47000000000E+01 0. -1.
         -5    1    5    5    0  503 -0.30385745655E+02 -0.65815270013E+02 -0.11704619520E+03  0.13775647032E+03  0.47000000000E+01 0. -1.
<mgrwt>
<rscale>  0 0.27499224E+03</rscale>
<asrwt>0</asrwt>
<pdfrwt beam="1">  1        2 0.86993485E-01 0.27499224E+03</pdfrwt>
<pdfrwt beam="2">  1       -2 0.51436030E-02 0.27499224E+03</pdfrwt>
<totfact> 0.10087117E+04</totfact>
</mgrwt>
</event>
<event>
 9    1  0.2098759E-002  0.2747894E+03  0.7818608E-02  0.1098569E+00
          2   -1    0    0  501    0  0.00000000000E+00  0.00000000000E+00  0.86035209677E+03  0.86035209677E+03  0.00000000000E+00 0. -1.
         -2   -1    0    0    0  501 -0.00000000000E+00 -0.00000000000E+00 -0.21941369221E+02  0.21941369221E+02  0.00000000000E+00 0. -1.
         36    2    1    2    0    0  0.71054273576E-14  0.00000000000E+00  0.83841072755E+03  0.88229346599E+03  0.27478939583E+03 0.  0.
         25    2    3    3    0    0 -0.40292762125E+02 -0.27734828434E+02  0.46965774821E+03  0.48957279402E+03  0.12926868457E+03 0.  0.
         25    2    3    3    0    0  0.40292762125E+02  0.27734828434E+02  0.36875297935E+03  0.39272067197E+03  0.12592870614E+03 0.  0.
          5    1    4    4  502    0 -0.56022518390E+02 -0.45183149776E+02  0.45665183745E+03  0.46231269746E+03  0.47000000000E+01 0. -1.
         -5    1    4    4    0  502  0.15729756265E+02  0.17448321342E+02  0.13005910756E+02  0.27260096559E+02  0.47000000000E+01 0. -1.
          5    1    5    5  503    0 -0.29468209593E+02 -0.31403224102E+02  0.10863340520E+03  0.11695231757E+03  0.47000000000E+01 0.  1.
         -5    1    5    5    0  503  0.69760971718E+02  0.59138052536E+02  0.26011957415E+03  0.27576835440E+03  0.47000000000E+01 0.  1.
<mgrwt>
<rscale>  0 0.27478940E+03</rscale>
<asrwt>0</asrwt>
<pdfrwt beam="1">  1        2 0.13236184E+00 0.27478940E+03</pdfrwt>
<pdfrwt beam="2">  1       -2 0.33755959E-02 0.27478940E+03</pdfrwt>
<totfact> 0.11416133E+04</totfact>
</mgrwt>
</event>
<event>
 9    1  0.2098759E-002  0.2753033E+03  0.7818608E-02  0.1098282E+00
         -2   -1    0    0    0  501 -0.00000000000E+00  0.00000000000E+00  0.81550960512E+02  0.81550960512E+02  0.00000000000E+00 0.  1.
          2   -1    0    0  501    0  0.00000000000E+00 -0.00000000000E+00 -0.23234518539E+03  0.23234518539E+03  0.00000000000E+00 0.  1.
         36    2    1    2    0    0 -0.71054273576E-14  0.00000000000E+00 -0.15079422488E+03  0.31389614590E+03  0.27530327306E+03 0.  0.
         25    2    3    3    0    0  0.62268841523E+02 -0.51772790923E+01 -0.52704324427E+02  0.14398532748E+03  0.11853191922E+03 0.  0.
         25    2    3    3    0    0 -0.62268841523E+02  0.51772790923E+01 -0.98089900453E+02  0.16991081842E+03  0.12387027409E+03 0.  0.
          5    1    4    4  502    0  0.23163371725E+02 -0.55435677681E+02 -0.52814698171E+02  0.80132006668E+02  0.47000000000E+01 0. -1.
         -5    1    4    4    0  502  0.39105469798E+02  0.50258398589E+02  0.11037374475E+00  0.63853320816E+02  0.47000000000E+01 0. -1.
          5    1    5    5  503    0  0.32057739866E+02  0.24640246072E+02 -0.17778611163E+02  0.44418570741E+02  0.47000000000E+01 0. -1.
         -5    1    5    5    0  503 -0.94326581389E+02 -0.19462966980E+02 -0.80311289290E+02  0.12549224768E+03  0.47000000000E+01 0. -1.
<mgrwt>
<rscale>  0 0.27530327E+03</rscale>
<asrwt>0</asrwt>
<pdfrwt beam="1">  1        2 0.35745412E-01 0.27530327E+03</pdfrwt>
<pdfrwt beam="2">  1       -2 0.12546302E-01 0.27530327E+03</pdfrwt>
<totfact> 0.65941150E+03</totfact>
</mgrwt>
</event>
<event>
 9    1  0.2098759E-002  0.2760880E+03  0.7818608E-02  0.1097845E+00
          2   -1    0    0  501    0  0.00000000000E+00  0.00000000000E+00  0.28470210627E+03  0.28470210627E+03  0.00000000000E+00 0. -1.
         -2   -1    0    0    0  501 -0.00000000000E+00 -0.00000000000E+00 -0.66933652490E+02  0.66933652490E+02  0.00000000000E+00 0. -1.
         36    2    1    2    0    0  0.79936057773E-14  0.71054273576E-14  0.21776845378E+03  0.35163575876E+03  0.27608804280E+03 0.  0.
         25    2    3    3    0    0  0.43113102756E+01  0.50843289885E+02  0.15847270346E+03  0.20973377079E+03  0.12755794505E+03 0.  0.
         25    2    3    3    0    0 -0.43113102756E+01 -0.50843289885E+02  0.59295750322E+02  0.14190198797E+03  0.11839155655E+03 0.  0.
          5    1    4    4  502    0  0.65618336779E+02  0.26250059648E+02  0.89168758283E+02  0.11387707937E+03  0.47000000000E+01 0.  1.
         -5    1    4    4    0  502 -0.61307026504E+02  0.24593230237E+02  0.69303945178E+02  0.95856691417E+02  0.47000000000E+01 0.  1.
          5    1    5    5  503    0 -0.41662929128E+01  0.20771336558E+02 -0.23730419332E+02  0.32156324739E+02  0.47000000000E+01 0.  1.
         -5    1    5    5    0  503 -0.14501736279E+00 -0.71614626443E+02  0.83026169654E+02  0.10974566323E+03  0.47000000000E+01 0.  1.
<mgrwt>
<rscale>  0 0.27608804E+03</rscale>
<asrwt>0</asrwt>
<pdfrwt beam="1">  1        2 0.43800323E-01 0.27608804E+03</pdfrwt>
<pdfrwt beam="2">  1       -2 0.10297485E-01 0.27608804E+03</pdfrwt>
<totfact> 0.72746002E+03</totfact>
</mgrwt>
</event>
<event>
 9    1  0.2098759E-002  0.2764228E+03  0.7818608E-02  0.1097659E+00
          2   -1    0    0  501    0  0.00000000000E+00  0.00000000000E+00  0.12943447375E+04  0.12943447375E+04  0.00000000000E+00 0.  1.
         -2   -1    0    0    0  501 -0.00000000000E+00 -0.00000000000E+00 -0.14758346535E+02  0.14758346535E+02  0.00000000000E+00 0.  1.
         36    2    1    2    0    0  0.71054273576E-14  0.35527136788E-14  0.12795863909E+04  0.13091030840E+04  0.27642277889E+03 0.  0.
         25    2    3    3    0    0 -0.57102389564E+02 -0.23904229239E+02  0.70837541805E+03  0.72132489294E+03  0.12116836721E+03 0.  0.
         25    2    3    3    0    0  0.57102389564E+02  0.23904229239E+02  0.57121097288E+03  0.58777819106E+03  0.12397230044E+03 0.  0.
          5    1    4    4  502    0 -0.29805974014E+02 -0.22479079948E+02  0.51069618939E+02  0.63434226572E+02  0.47000000000E+01 0. -1.
         -5    1    4    4    0  502 -0.27296415550E+02 -0.14251492910E+01  0.65730579911E+03  0.65789066637E+03  0.47000000000E+01 0. -1.
          5    1    5    5  503    0  0.66328309803E+02  0.12774943207E+02  0.56827702311E+03  0.57229669653E+03  0.47000000000E+01 0. -1.
         -5    1    5    5    0  503 -0.92259202389E+01  0.11129286032E+02  0.29339497703E+01  0.15481494537E+02  0.47000000000E+01 0. -1.
<mgrwt>
<rscale>  0 0.27642278E+03</rscale>
<asrwt>0</asrwt>
<pdfrwt beam="1">  1        2 0.19912987E+00 0.27642278E+03</pdfrwt>
<pdfrwt beam="2">  1       -2 0.22705159E-02 0.27642278E+03</pdfrwt>
<totfact> 0.11321333E+04</totfact>
</mgrwt>
</event>
<event>
 9    1  0.2098759E-002  0.2733119E+03  0.7818608E-02  0.1099399E+00
          4   -1    0    0  501    0  0.00000000000E+00  0.00000000000E+00  0.51784738895E+02  0.51784738895E+02  0.00000000000E+00 0.  1.
         -4   -1    0    0    0  501 -0.00000000000E+00 -0.00000000000E+00 -0.36062462165E+03  0.36062462165E+03  0.00000000000E+00 0.  1.
         36    2    1    2    0    0  0.00000000000E+00  0.00000000000E+00 -0.30883988275E+03  0.41240936054E+03  0.27331192342E+03 0.  0.
         25    2    3    3    0    0 -0.41818827394E+02 -0.19820994745E+02 -0.13314127320E+03  0.19095649270E+03  0.12882584103E+03 0.  0.
         25    2    3    3    0    0  0.41818827394E+02  0.19820994745E+02 -0.17569860955E+03  0.22145286784E+03  0.12660839277E+03 0.  0.
          5    1    4    4  502    0 -0.32447347167E+02  0.37114723629E+02 -0.12244963910E+03  0.13208458337E+03  0.47000000000E+01 0. -1.
         -5    1    4    4    0  502 -0.93714802261E+01 -0.56935718374E+02 -0.10691634106E+02  0.58871909331E+02  0.47000000000E+01 0. -1.
          5    1    5    5  503    0 -0.14143554990E+01  0.68356926998E+02 -0.10413487794E+03  0.12466287608E+03  0.47000000000E+01 0.  1.
         -5    1    5    5    0  503  0.43233182893E+02 -0.48535932253E+02 -0.71563731610E+02  0.96789991759E+02  0.47000000000E+01 0.  1.
<mgrwt>
<rscale>  0 0.27331192E+03</rscale>
<asrwt>0</asrwt>
<pdfrwt beam="1">  1        4 0.79668830E-02 0.27331192E+03</pdfrwt>
<pdfrwt beam="2">  1       -4 0.55480711E-01 0.27331192E+03</pdfrwt>
<totfact> 0.65122593E+02</totfact>
</mgrwt>
</event>
<event>
 9    1  0.2098759E-002  0.2782317E+03  0.7818608E-02  0.1096659E+00
          1   -1    0    0  501    0  0.00000000000E+00  0.00000000000E+00  0.57843158968E+03  0.57843158968E+03  0.00000000000E+00 0.  1.
         -1   -1    0    0    0  501 -0.00000000000E+00 -0.00000000000E+00 -0.33458098040E+02  0.33458098040E+02  0.00000000000E+00 0.  1.
         36    2    1    2    0    0  0.17763568394E-14  0.00000000000E+00  0.54497349164E+03  0.61188968772E+03  0.27823170802E+03 0.  0.
         25    2    3    3    0    0  0.10010363163E+02  0.42985213841E+02  0.40418924806E+03  0.42570879417E+03  0.12613918188E+03 0.  0.
         25    2    3    3    0    0 -0.10010363163E+02 -0.42985213841E+02  0.14078424358E+03  0.18618089355E+03  0.11355697206E+03 0.  0.
          5    1    4    4  502    0 -0.47872263917E+01  0.85162504189E+02  0.21723688750E+03  0.23342991442E+03  0.47000000000E+01 0.  1.
         -5    1    4    4    0  502  0.14797589555E+02 -0.42177290348E+02  0.18695236057E+03  0.19227887975E+03  0.47000000000E+01 0.  1.
          5    1    5    5  503    0  0.46428668538E+01  0.32581599780E+02  0.84216171988E+02  0.90540435614E+02  0.47000000000E+01 0.  1.
         -5    1    5    5    0  503 -0.14653230017E+02 -0.75566813621E+02  0.56568071592E+02  0.95640457937E+02  0.47000000000E+01 0.  1.
<mgrwt>
<rscale>  0 0.27823171E+03</rscale>
<asrwt>0</asrwt>
<pdfrwt beam="1">  1        1 0.88989468E-01 0.27823171E+03</pdfrwt>
<pdfrwt beam="2">  1       -1 0.51474001E-02 0.27823171E+03</pdfrwt>
<totfact> 0.62142522E+03</totfact>
</mgrwt>
</event>
<event>
 9    1  0.2098759E-002  0.2746406E+03  0.7818608E-02  0.1098653E+00
          3   -1    0    0  501    0  0.00000000000E+00  0.00000000000E+00  0.53491988749E+03  0.53491988749E+03  0.00000000000E+00 0. -1.
         -3   -1    0    0    0  501 -0.00000000000E+00 -0.00000000000E+00 -0.35251745306E+02  0.35251745306E+02  0.00000000000E+00 0. -1.
         36    2    1    2    0    0  0.00000000000E+00  0.00000000000E+00  0.49966814218E+03  0.57017163280E+03  0.27464056243E+03 0.  0.
         25    2    3    3    0    0  0.26512638362E+02  0.18242744101E+02  0.33043376787E+03  0.35353299731E+03  0.12150468111E+03 0.  0.
         25    2    3    3    0    0 -0.26512638362E+02 -0.18242744101E+02  0.16923437432E+03  0.21663863549E+03  0.13136326439E+03 0.  0.
          5    1    4    4  502    0 -0.33688245467E+02 -0.11700455351E+01  0.26729717647E+02  0.43276260174E+02  0.47000000000E+01 0.  1.
         -5    1    4    4    0  502  0.60200883829E+02  0.19412789636E+02  0.30370405022E+03  0.31025673713E+03  0.47000000000E+01 0.  1.
          5    1    5    5  503    0 -0.14358343256E+02 -0.56171732401E+02  0.16658219091E+03  0.17644586102E+03  0.47000000000E+01 0. -1.
         -5    1    5    5    0  503 -0.12154295106E+02  0.37928988301E+02  0.26521834079E+01  0.40192774474E+02  0.47000000000E+01 0. -1.
<mgrwt>
<rscale>  0 0.27464056E+03</rscale>
<asrwt>0</asrwt>
<pdfrwt beam="1">  1        3 0.82295362E-01 0.27464056E+03</pdfrwt>
<pdfrwt beam="2">  1       -3 0.54233458E-02 0.27464056E+03</pdfrwt>
<totfact> 0.71332843E+02</totfact>
</mgrwt>
</event>
<event>
 9    1  0.2098759E-002  0.2748324E+03  0.7818608E-02  0.1098545E+00
         -1   -1    0    0    0  501 -0.00000000000E+00  0.00000000000E+00  0.11157146609E+02  0.11157146609E+02  0.00000000000E+00 0. -1.
          1   -1    0    0  501    0  0.00000000000E+00 -0.00000000000E+00 -0.16924773871E+04  0.16924773871E+04  0.00000000000E+00 0. -1.
         36    2    1    2    0    0 -0.14210854715E-13  0.00000000000E+00 -0.16813202405E+04  0.17036345337E+04  0.27483244598E+03 0.  0.
         25    2    3    3    0    0  0.37999368194E+02  0.27104348787E+02 -0.66109652174E+03  0.67487526999E+03  0.12739474584E+03 0.  0.
         25    2    3    3    0    0 -0.37999368194E+02 -0.27104348787E+02 -0.10202237188E+04  0.10287592638E+04  0.12373596365E+03 0.  0.
          5    1    4    4  502    0 -0.38358193488E+02 -0.74287995507E+01 -0.36489666933E+03  0.36701254387E+03  0.47000000000E+01 0.  1.
         -5    1    4    4    0  502  0.76357561683E+02  0.34533148338E+02 -0.29619985241E+03  0.30786272611E+03  0.47000000000E+01 0.  1.
          5    1    5    5  503    0  0.22959687003E+02  0.26048084287E+02 -0.58574179445E+03  0.58678887999E+03  0.47000000000E+01 0.  1.
         -5    1    5    5    0  503 -0.60959055198E+02 -0.53152433074E+02 -0.43448192434E+03  0.44197038377E+03  0.47000000000E+01 0.  1.
<mgrwt>
<rscale>  0 0.27483245E+03</rscale>
<asrwt>0</asrwt>
<pdfrwt beam="1">  1        1 0.26038127E+00 0.27483245E+03</pdfrwt>
<pdfrwt beam="2">  1       -1 0.17164832E-02 0.27483245E+03</pdfrwt>
<totfact> 0.45845795E+03</totfact>
</mgrwt>
</event>
<event>
 9    1  0.2098759E-002  0.2736688E+03  0.7818608E-02  0.1099198E+00
          1   -1    0    0  501    0  0.00000000000E+00  0.00000000000E+00  0.14909425994E+03  0.14909425994E+03  0.00000000000E+00 0.  1.
         -1   -1    0    0    0  501 -0.00000000000E+00 -0.00000000000E+00 -0.12558264198E+03  0.12558264198E+03  0.00000000000E+00 0.  1.
         36    2    1    2    0    0  0.14210854715E-13 -0.71054273576E-14  0.23511617953E+02  0.27467690192E+03  0.27366878570E+03 0.  0.
         25    2    3    3    0    0 -0.48190949636E+02  0.61634356429E+01  0.36550450330E+02  0.13884385380E+03  0.12482517675E+03 0.  0.
         25    2    3    3    0    0  0.48190949636E+02 -0.61634356429E+01 -0.13038832376E+02  0.13583304812E+03  0.12617547403E+03 0.  0.
          5    1    4    4  502    0  0.71043176261E+01  0.38939680427E+02  0.58472596575E+02  0.70766549943E+02  0.47000000000E+01 0. -1.
         -5    1    4    4    0  502 -0.55295267262E+02 -0.32776244785E+02 -0.21922146245E+02  0.68077303852E+02  0.47000000000E+01 0. -1.
          5    1    5    5  503    0  0.38396795612E+02  0.39819664305E+02  0.37230627947E+02  0.66844066573E+02  0.47000000000E+01 0.  1.
         -5    1    5    5    0  503  0.97941540242E+01 -0.45983099948E+02 -0.50269460324E+02  0.68988981549E+02  0.47000000000E+01 0.  1.
<mgrwt>
<rscale>  0 0.27366879E+03</rscale>
<asrwt>0</asrwt>
<pdfrwt beam="1">  1        1 0.22937579E-01 0.27366879E+03</pdfrwt>
<pdfrwt beam="2">  1       -1 0.19320406E-01 0.27366879E+03</pdfrwt>
<totfact> 0.45312066E+03</totfact>
</mgrwt>
</event>
<event>
 9    1  0.2098759E-002  0.2756299E+03  0.7818608E-02  0.1098100E+00
         -2   -1    0    0    0  501 -0.00000000000E+00  0.00000000000E+00  0.18700457717E+02  0.18700457717E+02  0.00000000000E+00 0.  1.
          2   -1    0    0  501    0  0.00000000000E+00 -0.00000000000E+00 -0.10156417203E+04  0.10156417203E+04  0.00000000000E+00 0.  1.
         36    2    1    2    0    0  0.00000000000E+00 -0.71054273576E-14 -0.99694126259E+03  0.10343421780E+04  0.27562993340E+03 0.  0.
         25    2    3    3    0    0  0.41545077132E+02  0.33976560013E+02 -0.40117776731E+03  0.42325796189E+03  0.12378732268E+03 0.  0.
         25    2    3    3    0    0 -0.41545077132E+02 -0.33976560013E+02 -0.59576349528E+03  0.61108421613E+03  0.12493749170E+03 0.  0.
          5    1    4    4  502    0 -0.80302384962E+01  0.34393359945E+02 -0.24353969972E+02  0.43157777885E+02  0.47000000000E+01 0. -1.
         -5    1    4    4    0  502  0.49575315628E+02 -0.41679993251E+00 -0.37682379734E+03  0.38010018401E+03  0.47000000000E+01 0. -1.
          5    1    5    5  503    0 -0.31421180590E+02 -0.36755451900E+02 -0.59748212841E+03  0.59945411634E+03  0.47000000000E+01 0.  1.
         -5    1    5    5    0  503 -0.10123896542E+02  0.27788918876E+01  0.17186331263E+01  0.11630099791E+02  0.47000000000E+01 0.  1.
<mgrwt>
<rscale>  0 0.27562993E+03</rscale>
<asrwt>0</asrwt>
<pdfrwt beam="1">  1        2 0.15625256E+00 0.27562993E+03</pdfrwt>
<pdfrwt beam="2">  1       -2 0.28769938E-02 0.27562993E+03</pdfrwt>
<totfact> 0.11552589E+04</totfact>
</mgrwt>
</event>
<event>
 9    1  0.2098759E-002  0.2748754E+03  0.7818608E-02  0.1098521E+00
          2   -1    0    0  501    0  0.00000000000E+00  0.00000000000E+00  0.18603593578E+04  0.18603593578E+04  0.00000000000E+00 0. -1.
         -2   -1    0    0    0  501 -0.00000000000E+00 -0.00000000000E+00 -0.10153482791E+02  0.10153482791E+02  0.00000000000E+00 0. -1.
         36    2    1    2    0    0  0.35527136788E-14 -0.35527136788E-14  0.18502058750E+04  0.18705128406E+04  0.27487543888E+03 0.  0.
         25    2    3    3    0    0  0.29757063764E+02 -0.15303469031E+02  0.96109267975E+03  0.97249075373E+03  0.14463556964E+03 0.  0.
         25    2    3    3    0    0 -0.29757063764E+02  0.15303469031E+02  0.88911319526E+03  0.89802208687E+03  0.12166230108E+03 0.  0.
          5    1    4    4  502    0  0.10456481466E+02 -0.26526898026E+02  0.31997531947E+02  0.43115500394E+02  0.47000000000E+01 0. -1.
         -5    1    4    4    0  502  0.19300582298E+02  0.11223428995E+02  0.92909514781E+03  0.92937525334E+03  0.47000000000E+01 0. -1.
          5    1    5    5  503    0 -0.51676524447E+01  0.65044622918E+02  0.60316064378E+03  0.60669791479E+03  0.47000000000E+01 0.  1.
         -5    1    5    5    0  503 -0.24589411320E+02 -0.49741153887E+02  0.28595255148E+03  0.29132417208E+03  0.47000000000E+01 0.  1.
<mgrwt>
<rscale>  0 0.27487544E+03</rscale>
<asrwt>0</asrwt>
<pdfrwt beam="1">  1        2 0.28620886E+00 0.27487544E+03</pdfrwt>
<pdfrwt beam="2">  1       -2 0.15620758E-02 0.27487544E+03</pdfrwt>
<totfact> 0.97805261E+03</totfact>
</mgrwt>
</event>
<event>
 9    1  0.2098759E-002  0.2749307E+03  0.7818608E-02  0.1098490E+00
          2   -1    0    0  501    0  0.00000000000E+00  0.00000000000E+00  0.26699879153E+04  0.26699879153E+04  0.00000000000E+00 0. -1.
         -2   -1    0    0    0  501 -0.00000000000E+00 -0.00000000000E+00 -0.70774581433E+01  0.70774581433E+01  0.00000000000E+00 0. -1.
         36    2    1    2    0    0  0.71054273576E-14 -0.53290705182E-14  0.26629104571E+04  0.26770653734E+04  0.27493073828E+03 0.  0.
         25    2    3    3    0    0  0.57473342642E+02 -0.45668945433E+01  0.12631187720E+04  0.12704361651E+04  0.12334899942E+03 0.  0.
         25    2    3    3    0    0 -0.57473342642E+02  0.45668945433E+01  0.13997916851E+04  0.14066292083E+04  0.12595604955E+03 0.  0.
          5    1    4    4  502    0  0.21468603567E+02 -0.16233514673E+02  0.52211303757E+02  0.58928246009E+02  0.47000000000E+01 0.  1.
         -5    1    4    4    0  502  0.36004739075E+02  0.11666620129E+02  0.12109074683E+04  0.12115079191E+04  0.47000000000E+01 0.  1.
          5    1    5    5  503    0 -0.33401730864E+02 -0.30337926120E+02  0.16563874611E+03  0.17173919063E+03  0.47000000000E+01 0.  1.
         -5    1    5    5    0  503 -0.24071611778E+02  0.34904820664E+02  0.12341529390E+04  0.12348900177E+04  0.47000000000E+01 0.  1.
<mgrwt>
<rscale>  0 0.27493074E+03</rscale>
<asrwt>0</asrwt>
<pdfrwt beam="1">  1        2 0.41076657E+00 0.27493074E+03</pdfrwt>
<pdfrwt beam="2">  1       -2 0.10888418E-02 0.27493074E+03</pdfrwt>
<totfact> 0.60810953E+03</totfact>
</mgrwt>
</event>
<event>
 9    1  0.2098759E-002  0.2746418E+03  0.7818608E-02  0.1098652E+00
         -1   -1    0    0    0  501 -0.00000000000E+00  0.00000000000E+00  0.31325542632E+03  0.31325542632E+03  0.00000000000E+00 0. -1.
          1   -1    0    0  501    0  0.00000000000E+00 -0.00000000000E+00 -0.60196984052E+02  0.60196984052E+02  0.00000000000E+00 0. -1.
         36    2    1    2    0    0  0.71054273576E-14 -0.71054273576E-14  0.25305844226E+03  0.37345241037E+03  0.27464181693E+03 0.  0.
         25    2    3    3    0    0 -0.16766362230E+02 -0.42252076886E+02  0.17291878036E+03  0.22111087537E+03  0.13008753093E+03 0.  0.
         25    2    3    3    0    0  0.16766362230E+02  0.42252076886E+02  0.80139661905E+02  0.15234153500E+03  0.12132282956E+03 0.  0.
          5    1    4    4  502    0 -0.41745639534E+02  0.23616398017E+02  0.12961936890E+03  0.13828847917E+03  0.47000000000E+01 0. -1.
         -5    1    4    4    0  502  0.24979277304E+02 -0.65868474903E+02  0.43299411456E+02  0.82822396205E+02  0.47000000000E+01 0. -1.
          5    1    5    5  503    0 -0.47183319020E+02  0.42826766738E+02  0.28289712862E+02  0.69877001917E+02  0.47000000000E+01 0. -1.
         -5    1    5    5    0  503  0.63949681250E+02 -0.57468985241E+00  0.51849949043E+02  0.82464533080E+02  0.47000000000E+01 0. -1.
<mgrwt>
<rscale>  0 0.27464182E+03</rscale>
<asrwt>0</asrwt>
<pdfrwt beam="1">  1        1 0.92610746E-02 0.27464182E+03</pdfrwt>
<pdfrwt beam="2">  1       -1 0.48193142E-01 0.27464182E+03</pdfrwt>
<totfact> 0.31198706E+03</totfact>
</mgrwt>
</event>
<event>
 9    1  0.2098759E-002  0.2724010E+03  0.7818608E-02  0.1099913E+00
         -2   -1    0    0    0  501 -0.00000000000E+00  0.00000000000E+00  0.84863428827E+02  0.84863428827E+02  0.00000000000E+00 0. -1.
          2   -1    0    0  501    0  0.00000000000E+00 -0.00000000000E+00 -0.21859331980E+03  0.21859331980E+03  0.00000000000E+00 0. -1.
         36    2    1    2    0    0  0.00000000000E+00  0.71054273576E-14 -0.13372989097E+03  0.30345674862E+03  0.27240101789E+03 0.  0.
         25    2    3    3    0    0 -0.43184856020E+02  0.23842794090E+02 -0.64181956002E+02  0.15037826425E+03  0.12673155986E+03 0.  0.
         25    2    3    3    0    0  0.43184856020E+02 -0.23842794090E+02 -0.69547934968E+02  0.15307848437E+03  0.12713259417E+03 0.  0.
          5    1    4    4  502    0 -0.69407718304E+02 -0.30032303262E+02 -0.32657986945E+02  0.82510633925E+02  0.47000000000E+01 0.  1.
         -5    1    4    4    0  502  0.26222862285E+02  0.53875097352E+02 -0.31523969058E+02  0.67867630327E+02  0.47000000000E+01 0.  1.
          5    1    5    5  503    0  0.44466279077E+02 -0.60447637371E+02 -0.84615926614E+02  0.11319501701E+03  0.47000000000E+01 0.  1.
         -5    1    5    5    0  503 -0.12814230575E+01  0.36604843281E+02  0.15067991646E+02  0.39883467363E+02  0.47000000000E+01 0.  1.
<mgrwt>
<rscale>  0 0.27240102E+03</rscale>
<asrwt>0</asrwt>
<pdfrwt beam="1">  1        2 0.33629741E-01 0.27240102E+03</pdfrwt>
<pdfrwt beam="2">  1       -2 0.13055912E-01 0.27240102E+03</pdfrwt>
<totfact> 0.66020059E+03</totfact>
</mgrwt>
</event>
<event>
 9    1  0.2098759E-002  0.2745057E+03  0.7818608E-02  0.1098728E+00
          1   -1    0    0  501    0  0.00000000000E+00  0.00000000000E+00  0.10201842407E+03  0.10201842407E+03  0.00000000000E+00 0.  1.
         -1   -1    0    0    0  501 -0.00000000000E+00 -0.00000000000E+00 -0.18465626059E+03  0.18465626059E+03  0.00000000000E+00 0.  1.
         36    2    1    2    0    0  0.00000000000E+00  0.00000000000E+00 -0.82637836521E+02  0.28667468466E+03  0.27450566989E+03 0.  0.
         25    2    3    3    0    0  0.20806820252E+02  0.10977505877E+02 -0.15472408462E+02  0.13859604337E+03  0.13570570515E+03 0.  0.
         25    2    3    3    0    0 -0.20806820252E+02 -0.10977505877E+02 -0.67165428059E+02  0.14807864130E+03  0.12985630473E+03 0.  0.
          5    1    4    4  502    0  0.17465504449E+02  0.48760489441E+02 -0.60337810275E+02  0.79657834046E+02  0.47000000000E+01 0. -1.
         -5    1    4    4    0  502  0.33413158022E+01 -0.37782983565E+02  0.44865401812E+02  0.58938209322E+02  0.47000000000E+01 0. -1.
          5    1    5    5  503    0 -0.31081040595E+02  0.34430038052E+02  0.18747520748E+02  0.50249558595E+02  0.47000000000E+01 0. -1.
         -5    1    5    5    0  503  0.10274220343E+02 -0.45407543929E+02 -0.85912948808E+02  0.97829082701E+02  0.47000000000E+01 0. -1.
<mgrwt>
<rscale>  0 0.27450567E+03</rscale>
<asrwt>0</asrwt>
<pdfrwt beam="1">  1        1 0.15695142E-01 0.27450567E+03</pdfrwt>
<pdfrwt beam="2">  1       -1 0.28408656E-01 0.27450567E+03</pdfrwt>
<totfact> 0.39139853E+03</totfact>
</mgrwt>
</event>
<event>
 9    1  0.2098759E-002  0.2764141E+03  0.7818608E-02  0.1097664E+00
          2   -1    0    0  501    0  0.00000000000E+00  0.00000000000E+00  0.22796038589E+04  0.22796038589E+04  0.00000000000E+00 0. -1.
         -2   -1    0    0    0  501 -0.00000000000E+00 -0.00000000000E+00 -0.83791726967E+01  0.83791726967E+01  0.00000000000E+00 0. -1.
         36    2    1    2    0    0  0.00000000000E+00  0.00000000000E+00  0.22712246862E+04  0.22879830316E+04  0.27641414156E+03 0.  0.
         25    2    3    3    0    0  0.34302547185E+02 -0.50119688270E+02  0.12215998267E+04  0.12290423142E+04  0.12062431581E+03 0.  0.
         25    2    3    3    0    0 -0.34302547185E+02  0.50119688270E+02  0.10496248595E+04  0.10589407174E+04  0.12631092357E+03 0.  0.
          5    1    4    4  502    0  0.45074489617E+02 -0.80681428394E+02  0.65590940753E+03  0.66240504481E+03  0.47000000000E+01 0. -1.
         -5    1    4    4    0  502 -0.10771942432E+02  0.30561740124E+02  0.56569041918E+03  0.56663726939E+03  0.47000000000E+01 0. -1.
          5    1    5    5  503    0  0.15680663048E+02  0.32866224552E+02  0.88926022142E+03  0.89001792303E+03  0.47000000000E+01 0. -1.
         -5    1    5    5    0  503 -0.49983210233E+02  0.17253463718E+02  0.16036463807E+03  0.16892279438E+03  0.47000000000E+01 0. -1.
<mgrwt>
<rscale>  0 0.27641414E+03</rscale>
<asrwt>0</asrwt>
<pdfrwt beam="1">  1        2 0.35070779E+00 0.27641414E+03</pdfrwt>
<pdfrwt beam="2">  1       -2 0.12891053E-02 0.27641414E+03</pdfrwt>
<totfact> 0.77749481E+03</totfact>
</mgrwt>
</event>
<event>
 9    1  0.2098759E-002  0.2751096E+03  0.7818608E-02  0.1098390E+00
         -3   -1    0    0    0  501 -0.00000000000E+00  0.00000000000E+00  0.53003189632E+02  0.53003189632E+02  0.00000000000E+00 0. -1.
          3   -1    0    0  501    0  0.00000000000E+00 -0.00000000000E+00 -0.35698473693E+03  0.35698473693E+03  0.00000000000E+00 0. -1.
         36    2    1    2    0    0 -0.71054273576E-14  0.00000000000E+00 -0.30398154730E+03  0.40998792656E+03  0.27510964874E+03 0.  0.
         25    2    3    3    0    0 -0.27618139129E+02  0.10561353431E+02 -0.22691421484E+03  0.26104275877E+03  0.12561431932E+03 0.  0.
         25    2    3    3    0    0  0.27618139129E+02 -0.10561353431E+02 -0.77067332462E+02  0.14894516779E+03  0.12397977851E+03 0.  0.
          5    1    4    4  502    0  0.42752814022E+02 -0.18389406330E+02 -0.12716302295E+03  0.13549353408E+03  0.47000000000E+01 0. -1.
         -5    1    4    4    0  502 -0.70370953151E+02  0.28950759760E+02 -0.99751191890E+02  0.12554922470E+03  0.47000000000E+01 0. -1.
          5    1    5    5  503    0  0.62822229905E+02  0.23622817124E+02 -0.13699828036E+02  0.68661818701E+02  0.47000000000E+01 0. -1.
         -5    1    5    5    0  503 -0.35204090776E+02 -0.34184170555E+02 -0.63367504425E+02  0.80283349089E+02  0.47000000000E+01 0. -1.
<mgrwt>
<rscale>  0 0.27510965E+03</rscale>
<asrwt>0</asrwt>
<pdfrwt beam="1">  1        3 0.54920729E-01 0.27510965E+03</pdfrwt>
<pdfrwt beam="2">  1       -3 0.81543368E-02 0.27510965E+03</pdfrwt>
<totfact> 0.86848904E+02</totfact>
</mgrwt>
</event>
<event>
 9    1  0.2098759E-002  0.2734649E+03  0.7818608E-02  0.1099313E+00
          1   -1    0    0  501    0  0.00000000000E+00  0.00000000000E+00  0.54516907320E+02  0.54516907320E+02  0.00000000000E+00 0. -1.
         -1   -1    0    0    0  501 -0.00000000000E+00 -0.00000000000E+00 -0.34293502393E+03  0.34293502393E+03  0.00000000000E+00 0. -1.
         36    2    1    2    0    0  0.71054273576E-14  0.71054273576E-14 -0.28841811661E+03  0.39745193125E+03  0.27346485636E+03 0.  0.
         25    2    3    3    0    0 -0.63264240950E+02  0.32459087712E+01 -0.13266536486E+03  0.19440521213E+03  0.12720215157E+03 0.  0.
         25    2    3    3    0    0  0.63264240950E+02 -0.32459087712E+01 -0.15575275175E+03  0.20304671912E+03  0.11382508669E+03 0.  0.
          5    1    4    4  502    0 -0.36394983331E+02  0.64698048735E+02 -0.61617584844E+02  0.96588037995E+02  0.47000000000E+01 0. -1.
         -5    1    4    4    0  502 -0.26869257619E+02 -0.61452139963E+02 -0.71047780017E+02  0.97817174138E+02  0.47000000000E+01 0. -1.
          5    1    5    5  503    0  0.51673837873E+02  0.50240147829E+02 -0.66105409227E+02  0.97909514877E+02  0.47000000000E+01 0. -1.
         -5    1    5    5    0  503  0.11590403077E+02 -0.53486056601E+02 -0.89647342527E+02  0.10513720424E+03  0.47000000000E+01 0. -1.
<mgrwt>
<rscale>  0 0.27346486E+03</rscale>
<asrwt>0</asrwt>
<pdfrwt beam="1">  1        1 0.83872168E-02 0.27346486E+03</pdfrwt>
<pdfrwt beam="2">  1       -1 0.52759233E-01 0.27346486E+03</pdfrwt>
<totfact> 0.30165690E+03</totfact>
</mgrwt>
</event>
<event>
 9    1  0.2098759E-002  0.2756745E+03  0.7818608E-02  0.1098075E+00
          4   -1    0    0  501    0  0.00000000000E+00  0.00000000000E+00  0.90090557367E+02  0.90090557367E+02  0.00000000000E+00 0.  1.
         -4   -1    0    0    0  501 -0.00000000000E+00 -0.00000000000E+00 -0.21088899205E+03  0.21088899205E+03  0.00000000000E+00 0.  1.
         36    2    1    2    0    0  0.00000000000E+00  0.71054273576E-14 -0.12079843468E+03  0.30097954942E+03  0.27567449528E+03 0.  0.
         25    2    3    3    0    0 -0.42723258725E+02 -0.42922276982E+01 -0.26626572920E+02  0.14090523412E+03  0.13153558667E+03 0.  0.
         25    2    3    3    0    0  0.42723258725E+02  0.42922276982E+01 -0.94171861764E+02  0.16007431530E+03  0.12211366351E+03 0.  0.
          5    1    4    4  502    0 -0.28502515068E+02 -0.52263624457E+02  0.28620810766E+02  0.66220243245E+02  0.47000000000E+01 0. -1.
         -5    1    4    4    0  502 -0.14220743657E+02  0.47971396759E+02 -0.55247383686E+02  0.74684990870E+02  0.47000000000E+01 0. -1.
          5    1    5    5  503    0  0.18146582969E+02  0.62279854854E+02 -0.36682083406E+02  0.74670904890E+02  0.47000000000E+01 0. -1.
         -5    1    5    5    0  503  0.24576675756E+02 -0.57987627156E+02 -0.57489778358E+02  0.85403410412E+02  0.47000000000E+01 0. -1.
<mgrwt>
<rscale>  0 0.27567450E+03</rscale>
<asrwt>0</asrwt>
<pdfrwt beam="1">  1        4 0.13860086E-01 0.27567450E+03</pdfrwt>
<pdfrwt beam="2">  1       -4 0.32444460E-01 0.27567450E+03</pdfrwt>
<totfact> 0.74320854E+02</totfact>
</mgrwt>
</event>
<event>
 9    1  0.2098759E-002  0.2753196E+03  0.7818608E-02  0.1098273E+00
         -4   -1    0    0    0  501 -0.00000000000E+00  0.00000000000E+00  0.55719337286E+03  0.55719337286E+03  0.00000000000E+00 0. -1.
          4   -1    0    0  501    0  0.00000000000E+00 -0.00000000000E+00 -0.34010144264E+02  0.34010144264E+02  0.00000000000E+00 0. -1.
         36    2    1    2    0    0  0.35527136788E-14  0.35527136788E-14  0.52318322860E+03  0.59120351713E+03  0.27531964691E+03 0.  0.
         25    2    3    3    0    0  0.28829593653E+02  0.20136172936E+02  0.19938492027E+03  0.24193474363E+03  0.13244418754E+03 0.  0.
         25    2    3    3    0    0 -0.28829593653E+02 -0.20136172936E+02  0.32379830832E+03  0.34926877349E+03  0.12612184875E+03 0.  0.
          5    1    4    4  502    0 -0.10444622957E+02 -0.26416473609E+02 -0.44576415579E+01  0.29135558942E+02  0.47000000000E+01 0. -1.
         -5    1    4    4    0  502  0.39274216609E+02  0.46552646544E+02  0.20384256183E+03  0.21279918469E+03  0.47000000000E+01 0. -1.
          5    1    5    5  503    0  0.13367255926E+01 -0.47462918244E+02  0.29584519521E+03  0.29966812472E+03  0.47000000000E+01 0.  1.
         -5    1    5    5    0  503 -0.30166319245E+02  0.27326745308E+02  0.27953113111E+02  0.49600648771E+02  0.47000000000E+01 0.  1.
<mgrwt>
<rscale>  0 0.27531965E+03</rscale>
<asrwt>0</asrwt>
<pdfrwt beam="1">  1        4 0.52323303E-02 0.27531965E+03</pdfrwt>
<pdfrwt beam="2">  1       -4 0.85722051E-01 0.27531965E+03</pdfrwt>
<totfact> 0.50556125E+02</totfact>
</mgrwt>
</event>
<event>
 9    1  0.2098759E-002  0.2840168E+03  0.7818608E-02  0.1093515E+00
          2   -1    0    0  501    0  0.00000000000E+00  0.00000000000E+00  0.17522457888E+04  0.17522457888E+04  0.00000000000E+00 0. -1.
         -2   -1    0    0    0  501 -0.00000000000E+00 -0.00000000000E+00 -0.11508881065E+02  0.11508881065E+02  0.00000000000E+00 0. -1.
         36    2    1    2    0    0 -0.71054273576E-14 -0.14210854715E-13  0.17407369078E+04  0.17637546699E+04  0.28401681908E+03 0.  0.
         25    2    3    3    0    0  0.25559057757E+02  0.51244818740E+02  0.63737648597E+03  0.65189287918E+03  0.12424268258E+03 0.  0.
         25    2    3    3    0    0 -0.25559057757E+02 -0.51244818740E+02  0.11033604218E+04  0.11118617907E+04  0.12471216616E+03 0.  0.
          5    1    4    4  502    0  0.37301941631E+02  0.84023509269E+02  0.33277830230E+03  0.34527506924E+03  0.47000000000E+01 0. -1.
         -5    1    4    4    0  502 -0.11742883874E+02 -0.32778690530E+02  0.30459818367E+03  0.30661780994E+03  0.47000000000E+01 0. -1.
          5    1    5    5  503    0  0.40721301067E+02 -0.74091816597E+01  0.16673634319E+03  0.17186104408E+03  0.47000000000E+01 0. -1.
         -5    1    5    5    0  503 -0.66280358823E+02 -0.43835637080E+02  0.93662407859E+03  0.94000074662E+03  0.47000000000E+01 0. -1.
<mgrwt>
<rscale>  0 0.28401682E+03</rscale>
<asrwt>0</asrwt>
<pdfrwt beam="1">  1        2 0.26957606E+00 0.28401682E+03</pdfrwt>
<pdfrwt beam="2">  1       -2 0.17705985E-02 0.28401682E+03</pdfrwt>
<totfact> 0.92801436E+03</totfact>
</mgrwt>
</event>
<event>
 9    1  0.2098759E-002  0.2677353E+03  0.7818608E-02  0.1102583E+00
          2   -1    0    0  501    0  0.00000000000E+00  0.00000000000E+00  0.71515472471E+02  0.71515472471E+02  0.00000000000E+00 0. -1.
         -2   -1    0    0    0  501 -0.00000000000E+00 -0.00000000000E+00 -0.25058288909E+03  0.25058288909E+03  0.00000000000E+00 0. -1.
         36    2    1    2    0    0  0.00000000000E+00  0.00000000000E+00 -0.17906741662E+03  0.32209836156E+03  0.26773534474E+03 0.  0.
         25    2    3    3    0    0 -0.22312725536E+02 -0.44182360086E+02 -0.11201252379E+03  0.17803123016E+03  0.12922219145E+03 0.  0.
         25    2    3    3    0    0  0.22312725536E+02  0.44182360086E+02 -0.67054892823E+02  0.14406713140E+03  0.11751187614E+03 0.  0.
          5    1    4    4  502    0  0.51263128787E+02  0.89050685664E+00 -0.34755453432E+02  0.62118700233E+02  0.47000000000E+01 0. -1.
         -5    1    4    4    0  502 -0.73575854323E+02 -0.45072866942E+02 -0.77257070361E+02  0.11591252993E+03  0.47000000000E+01 0. -1.
          5    1    5    5  503    0  0.45972346440E+02 -0.11065440414E+02  0.75881991375E+01  0.48120384193E+02  0.47000000000E+01 0. -1.
         -5    1    5    5    0  503 -0.23659620904E+02  0.55247800499E+02 -0.74643091961E+02  0.95946747203E+02  0.47000000000E+01 0. -1.
<mgrwt>
<rscale>  0 0.26773534E+03</rscale>
<asrwt>0</asrwt>
<pdfrwt beam="1">  1        2 0.11002380E-01 0.26773534E+03</pdfrwt>
<pdfrwt beam="2">  1       -2 0.38551214E-01 0.26773534E+03</pdfrwt>
<totfact> 0.36152941E+03</totfact>
</mgrwt>
</event>
<event>
 9    1  0.2098759E-002  0.2748936E+03  0.7818608E-02  0.1098511E+00
          1   -1    0    0  501    0  0.00000000000E+00  0.00000000000E+00  0.72489843390E+02  0.72489843390E+02  0.00000000000E+00 0.  1.
         -1   -1    0    0    0  501 -0.00000000000E+00 -0.00000000000E+00 -0.26061067813E+03  0.26061067813E+03  0.00000000000E+00 0.  1.
         36    2    1    2    0    0  0.71054273576E-14  0.00000000000E+00 -0.18812083474E+03  0.33310052152E+03  0.27489363211E+03 0.  0.
         25    2    3    3    0    0  0.94493360406E+01 -0.45987329628E+02 -0.26575551594E+02  0.12663466501E+03  0.11456855590E+03 0.  0.
         25    2    3    3    0    0 -0.94493360406E+01  0.45987329628E+02 -0.16154528314E+03  0.20646585651E+03  0.11969606075E+03 0.  0.
          5    1    4    4  502    0 -0.51369288238E+02 -0.11581160640E+02 -0.38595758660E+01  0.53008616108E+02  0.47000000000E+01 0.  1.
         -5    1    4    4    0  502  0.60818624278E+02 -0.34406168988E+02 -0.22715975728E+02  0.73626048901E+02  0.47000000000E+01 0.  1.
          5    1    5    5  503    0  0.22522653600E+02  0.27251903557E+02  0.47919695095E+01  0.35985957601E+02  0.47000000000E+01 0.  1.
         -5    1    5    5    0  503 -0.31971989640E+02  0.18735426070E+02 -0.16633725265E+03  0.17047989891E+03  0.47000000000E+01 0.  1.
<mgrwt>
<rscale>  0 0.27489363E+03</rscale>
<asrwt>0</asrwt>
<pdfrwt beam="1">  1        1 0.11152284E-01 0.27489363E+03</pdfrwt>
<pdfrwt beam="2">  1       -1 0.40093951E-01 0.27489363E+03</pdfrwt>
<totfact> 0.33886064E+03</totfact>
</mgrwt>
</event>
<event>
 9    1  0.2098759E-002  0.2752541E+03  0.7818608E-02  0.1098310E+00
         -4   -1    0    0    0  501 -0.00000000000E+00  0.00000000000E+00  0.35754564213E+03  0.35754564213E+03  0.00000000000E+00 0. -1.
          4   -1    0    0  501    0  0.00000000000E+00 -0.00000000000E+00 -0.52975637231E+02  0.52975637231E+02  0.00000000000E+00 0. -1.
         36    2    1    2    0    0 -0.35527136788E-14  0.00000000000E+00  0.30457000490E+03  0.41052127936E+03  0.27525412426E+03 0.  0.
         25    2    3    3    0    0  0.28837816732E+02  0.35330346412E+02  0.14779971567E+03  0.20527065570E+03  0.13494974282E+03 0.  0.
         25    2    3    3    0    0 -0.28837816732E+02 -0.35330346412E+02  0.15677028923E+03  0.20525062366E+03  0.12438264299E+03 0.  0.
          5    1    4    4  502    0 -0.68541629572E+01 -0.63655348844E+01 -0.23288238718E+02  0.25532952176E+02  0.47000000000E+01 0.  1.
         -5    1    4    4    0  502  0.35691979689E+02  0.41695881297E+02  0.17108795439E+03  0.17973770353E+03  0.47000000000E+01 0.  1.
          5    1    5    5  503    0  0.47403490414E+02 -0.28238093423E+02  0.73548946667E+02  0.92065294110E+02  0.47000000000E+01 0.  1.
         -5    1    5    5    0  503 -0.76241307146E+02 -0.70922529892E+01  0.83221342560E+02  0.11318532955E+03  0.47000000000E+01 0.  1.
<mgrwt>
<rscale>  0 0.27525412E+03</rscale>
<asrwt>0</asrwt>
<pdfrwt beam="1">  1        4 0.81500983E-02 0.27525412E+03</pdfrwt>
<pdfrwt beam="2">  1       -4 0.55007020E-01 0.27525412E+03</pdfrwt>
<totfact> 0.63889957E+02</totfact>
</mgrwt>
</event>
<event>
 9    1  0.2098759E-002  0.2753244E+03  0.7818608E-02  0.1098270E+00
         -2   -1    0    0    0  501 -0.00000000000E+00  0.00000000000E+00  0.26773544023E+02  0.26773544023E+02  0.00000000000E+00 0.  1.
          2   -1    0    0  501    0  0.00000000000E+00 -0.00000000000E+00 -0.70782128197E+03  0.70782128197E+03  0.00000000000E+00 0.  1.
         36    2    1    2    0    0  0.00000000000E+00  0.00000000000E+00 -0.68104773795E+03  0.73459482599E+03  0.27532442139E+03 0.  0.
         25    2    3    3    0    0  0.24915750375E+01  0.55133034685E+02 -0.33624420850E+03  0.36486749239E+03  0.13046938257E+03 0.  0.
         25    2    3    3    0    0 -0.24915750375E+01 -0.55133034685E+02 -0.34480352944E+03  0.36972733360E+03  0.12150295403E+03 0.  0.
          5    1    4    4  502    0  0.37748284497E+02  0.55150613452E+02 -0.31783061436E+03  0.32481519757E+03  0.47000000000E+01 0.  1.
         -5    1    4    4    0  502 -0.35256709460E+02 -0.17578766183E-01 -0.18413594140E+02  0.40052294817E+02  0.47000000000E+01 0.  1.
          5    1    5    5  503    0 -0.45554257354E+01  0.24576130982E+01  0.89064516377E+01  0.11322837389E+02  0.47000000000E+01 0.  1.
         -5    1    5    5    0  503  0.20638506979E+01 -0.57590647784E+02 -0.35370998108E+03  0.35840449621E+03  0.47000000000E+01 0.  1.
<mgrwt>
<rscale>  0 0.27532442E+03</rscale>
<asrwt>0</asrwt>
<pdfrwt beam="1">  1        2 0.10889558E+00 0.27532442E+03</pdfrwt>
<pdfrwt beam="2">  1       -2 0.41190067E-02 0.27532442E+03</pdfrwt>
<totfact> 0.10835431E+04</totfact>
</mgrwt>
</event>
<event>
 9    1  0.2098759E-002  0.2743972E+03  0.7818608E-02  0.1098789E+00
          1   -1    0    0  501    0  0.00000000000E+00  0.00000000000E+00  0.14123840205E+04  0.14123840205E+04  0.00000000000E+00 0. -1.
         -1   -1    0    0    0  501 -0.00000000000E+00 -0.00000000000E+00 -0.13327435686E+02  0.13327435686E+02  0.00000000000E+00 0. -1.
         36    2    1    2    0    0  0.00000000000E+00  0.00000000000E+00  0.13990565848E+04  0.14257114562E+04  0.27439720987E+03 0.  0.
         25    2    3    3    0    0 -0.81900725863E+01 -0.11045699166E+02  0.93978559962E+03  0.95231164261E+03  0.15333429701E+03 0.  0.
         25    2    3    3    0    0  0.81900725863E+01  0.11045699166E+02  0.45927098519E+03  0.47339981357E+03  0.11396692894E+03 0.  0.
          5    1    4    4  502    0 -0.59539293803E+02  0.36602223186E+02  0.66576352830E+03  0.66943843322E+03  0.47000000000E+01 0.  1.
         -5    1    4    4    0  502  0.51349221217E+02 -0.47647922352E+02  0.27402207131E+03  0.28287320939E+03  0.47000000000E+01 0.  1.
          5    1    5    5  503    0 -0.24389070836E+02  0.54298637431E+02  0.26690771156E+03  0.27350500049E+03  0.47000000000E+01 0.  1.
         -5    1    5    5    0  503  0.32579143422E+02 -0.43252938265E+02  0.19236327362E+03  0.19989481307E+03  0.47000000000E+01 0.  1.
<mgrwt>
<rscale>  0 0.27439721E+03</rscale>
<asrwt>0</asrwt>
<pdfrwt beam="1">  1        1 0.21728973E+00 0.27439721E+03</pdfrwt>
<pdfrwt beam="2">  1       -1 0.20503758E-02 0.27439721E+03</pdfrwt>
<totfact> 0.54130435E+03</totfact>
</mgrwt>
</event>
<event>
 9    1  0.2098759E-002  0.2749021E+03  0.7818608E-02  0.1098506E+00
         -2   -1    0    0    0  501 -0.00000000000E+00  0.00000000000E+00  0.53601091314E+02  0.53601091314E+02  0.00000000000E+00 0.  1.
          2   -1    0    0  501    0  0.00000000000E+00 -0.00000000000E+00 -0.35247028285E+03  0.35247028285E+03  0.00000000000E+00 0.  1.
         36    2    1    2    0    0  0.00000000000E+00  0.00000000000E+00 -0.29886919154E+03  0.40607137416E+03  0.27490210488E+03 0.  0.
         25    2    3    3    0    0  0.19602493998E+01  0.21617692468E+02 -0.32250477726E+02  0.11039010565E+03  0.10331851193E+03 0.  0.
         25    2    3    3    0    0 -0.19602493998E+01 -0.21617692468E+02 -0.26661871381E+03  0.29568126851E+03  0.12597899344E+03 0.  0.
          5    1    4    4  502    0  0.22485605026E+02 -0.45554750604E+01  0.30953135434E+02  0.38814190442E+02  0.47000000000E+01 0.  1.
         -5    1    4    4    0  502 -0.20525355626E+02  0.26173167529E+02 -0.63203613160E+02  0.71575915213E+02  0.47000000000E+01 0.  1.
          5    1    5    5  503    0  0.78795760069E+01  0.47451108702E+02 -0.57129090390E+02  0.74829929867E+02  0.47000000000E+01 0. -1.
         -5    1    5    5    0  503 -0.98398254067E+01 -0.69068801170E+02 -0.20948962342E+03  0.22085133864E+03  0.47000000000E+01 0. -1.
<mgrwt>
<rscale>  0 0.27490210E+03</rscale>
<asrwt>0</asrwt>
<pdfrwt beam="1">  1        2 0.54226197E-01 0.27490210E+03</pdfrwt>
<pdfrwt beam="2">  1       -2 0.82463218E-02 0.27490210E+03</pdfrwt>
<totfact> 0.82081638E+03</totfact>
</mgrwt>
</event>
<event>
 9    1  0.2098759E-002  0.2702520E+03  0.7818608E-02  0.1101135E+00
          2   -1    0    0  501    0  0.00000000000E+00  0.00000000000E+00  0.32379245927E+03  0.32379245927E+03  0.00000000000E+00 0. -1.
         -2   -1    0    0    0  501 -0.00000000000E+00 -0.00000000000E+00 -0.56391169885E+02  0.56391169885E+02  0.00000000000E+00 0. -1.
         36    2    1    2    0    0  0.00000000000E+00  0.00000000000E+00  0.26740128939E+03  0.38018362916E+03  0.27025199780E+03 0.  0.
         25    2    3    3    0    0 -0.37661222375E+00 -0.52335242536E+02  0.16505254863E+03  0.21205640063E+03  0.12241917248E+03 0.  0.
         25    2    3    3    0    0  0.37661222375E+00  0.52335242536E+02  0.10234874076E+03  0.16812722853E+03  0.12268814446E+03 0.  0.
          5    1    4    4  502    0  0.23161374080E+02  0.14319029914E+02  0.13020580323E+03  0.13310569132E+03  0.47000000000E+01 0.  1.
         -5    1    4    4    0  502 -0.23537986304E+02 -0.66654272450E+02  0.34846745397E+02  0.78950709305E+02  0.47000000000E+01 0.  1.
          5    1    5    5  503    0 -0.49698073752E+02  0.17904980815E+02  0.92161098332E+02  0.10633082770E+03  0.47000000000E+01 0. -1.
         -5    1    5    5    0  503  0.50074685976E+02  0.34430261721E+02  0.10187642424E+02  0.61796400833E+02  0.47000000000E+01 0. -1.
<mgrwt>
<rscale>  0 0.27025200E+03</rscale>
<asrwt>0</asrwt>
<pdfrwt beam="1">  1        2 0.49814223E-01 0.27025200E+03</pdfrwt>
<pdfrwt beam="2">  1       -2 0.86755648E-02 0.27025200E+03</pdfrwt>
<totfact> 0.83007164E+03</totfact>
</mgrwt>
</event>
<event>
 9    1  0.2098759E-002  0.2847551E+03  0.7818608E-02  0.1093120E+00
         -1   -1    0    0    0  501 -0.00000000000E+00  0.00000000000E+00  0.34973995506E+02  0.34973995506E+02  0.00000000000E+00 0.  1.
          1   -1    0    0  501    0  0.00000000000E+00 -0.00000000000E+00 -0.57961268583E+03  0.57961268583E+03  0.00000000000E+00 0.  1.
         36    2    1    2    0    0  0.00000000000E+00  0.00000000000E+00 -0.54463869033E+03  0.61458668134E+03  0.28475513319E+03 0.  0.
         25    2    3    3    0    0  0.49837551524E+02  0.29383862259E+02 -0.18744870137E+03  0.23212816597E+03  0.12409382292E+03 0.  0.
         25    2    3    3    0    0 -0.49837551524E+02 -0.29383862259E+02 -0.35718998896E+03  0.38245851537E+03  0.12386539010E+03 0.  0.
          5    1    4    4  502    0  0.80205155887E+02  0.25953755588E+01 -0.16948044947E+03  0.18757749267E+03  0.47000000000E+01 0.  1.
         -5    1    4    4    0  502 -0.30367604363E+02  0.26788486700E+02 -0.17968251897E+02  0.44550673291E+02  0.47000000000E+01 0.  1.
          5    1    5    5  503    0  0.23983493140E+02  0.32047735110E+02 -0.11640544313E+03  0.12318515519E+03  0.47000000000E+01 0.  1.
         -5    1    5    5    0  503 -0.73821044663E+02 -0.61431597369E+02 -0.24078454583E+03  0.25927336018E+03  0.47000000000E+01 0.  1.
<mgrwt>
<rscale>  0 0.28475513E+03</rscale>
<asrwt>0</asrwt>
<pdfrwt beam="1">  1        1 0.89171177E-01 0.28475513E+03</pdfrwt>
<pdfrwt beam="2">  1       -1 0.53806150E-02 0.28475513E+03</pdfrwt>
<totfact> 0.58014684E+03</totfact>
</mgrwt>
</event>
<event>
 9    1  0.2098759E-002  0.2749433E+03  0.7818608E-02  0.1098483E+00
          2   -1    0    0  501    0  0.00000000000E+00  0.00000000000E+00  0.10811814492E+04  0.10811814492E+04  0.00000000000E+00 0. -1.
         -2   -1    0    0    0  501 -0.00000000000E+00 -0.00000000000E+00 -0.17479451218E+02  0.17479451218E+02  0.00000000000E+00 0. -1.
         36    2    1    2    0    0 -0.14210854715E-13  0.00000000000E+00  0.10637019980E+04  0.10986609004E+04  0.27494332797E+03 0.  0.
         25    2    3    3    0    0 -0.75378789414E+02 -0.23362708201E+02  0.53272587802E+03  0.55223232182E+03  0.12221251215E+03 0.  0.
         25    2    3    3    0    0  0.75378789414E+02  0.23362708201E+02  0.53097611994E+03  0.54642857858E+03  0.10208218997E+03 0.  0.
          5    1    4    4  502    0 -0.59289501749E+02  0.45280002839E+02  0.26544373296E+03  0.27576799858E+03  0.47000000000E+01 0.  1.
         -5    1    4    4    0  502 -0.16089287665E+02 -0.68642711040E+02  0.26728214506E+03  0.27646432324E+03  0.47000000000E+01 0.  1.
          5    1    5    5  503    0 -0.97435569505E+01 -0.64080768456E+01  0.26960764788E+03  0.26990067459E+03  0.47000000000E+01 0.  1.
         -5    1    5    5    0  503  0.85122346364E+02  0.29770785047E+02  0.26136847206E+03  0.27652790398E+03  0.47000000000E+01 0.  1.
<mgrwt>
<rscale>  0 0.27494333E+03</rscale>
<asrwt>0</asrwt>
<pdfrwt beam="1">  1        2 0.16633556E+00 0.27494333E+03</pdfrwt>
<pdfrwt beam="2">  1       -2 0.26891472E-02 0.27494333E+03</pdfrwt>
<totfact> 0.11664873E+04</totfact>
</mgrwt>
</event>
<event>
 9    1  0.2098759E-002  0.2756632E+03  0.7818608E-02  0.1098081E+00
          1   -1    0    0  501    0  0.00000000000E+00  0.00000000000E+00  0.16410306702E+02  0.16410306702E+02  0.00000000000E+00 0. -1.
         -1   -1    0    0    0  501 -0.00000000000E+00 -0.00000000000E+00 -0.11576593841E+04  0.11576593841E+04  0.00000000000E+00 0. -1.
         36    2    1    2    0    0  0.00000000000E+00 -0.14210854715E-13 -0.11412490774E+04  0.11740696908E+04  0.27566316801E+03 0.  0.
         25    2    3    3    0    0 -0.39021406136E+02 -0.43317786454E+02 -0.67865485708E+03  0.69139393731E+03  0.11854982391E+03 0.  0.
         25    2    3    3    0    0  0.39021406136E+02  0.43317786454E+02 -0.46259422034E+03  0.48267575351E+03  0.12483336725E+03 0.  0.
          5    1    4    4  502    0 -0.17238385450E+01 -0.93494888785E+01  0.24292442136E+00  0.10608184288E+02  0.47000000000E+01 0. -1.
         -5    1    4    4    0  502 -0.37297567591E+02 -0.33968297575E+02 -0.67889778150E+03  0.68078575302E+03  0.47000000000E+01 0. -1.
          5    1    5    5  503    0  0.69701712883E+01  0.81606067393E+02 -0.21648049963E+03  0.23150384498E+03  0.47000000000E+01 0.  1.
         -5    1    5    5    0  503  0.32051234848E+02 -0.38288280939E+02 -0.24611372071E+03  0.25117190853E+03  0.47000000000E+01 0.  1.
<mgrwt>
<rscale>  0 0.27566317E+03</rscale>
<asrwt>0</asrwt>
<pdfrwt beam="1">  1        1 0.25246621E-02 0.27566317E+03</pdfrwt>
<pdfrwt beam="2">  1       -1 0.17810148E+00 0.27566317E+03</pdfrwt>
<totfact> 0.10254323E+03</totfact>
</mgrwt>
</event>
<event>
 9    1  0.2098759E-002  0.2756170E+03  0.7818608E-02  0.1098107E+00
         -3   -1    0    0    0  501 -0.00000000000E+00  0.00000000000E+00  0.13618567474E+03  0.13618567474E+03  0.00000000000E+00 0.  1.
          3   -1    0    0  501    0  0.00000000000E+00 -0.00000000000E+00 -0.13945071131E+03  0.13945071131E+03  0.00000000000E+00 0.  1.
         36    2    1    2    0    0  0.00000000000E+00 -0.71054273576E-14 -0.32650365729E+01  0.27563638604E+03  0.27561704746E+03 0.  0.
         25    2    3    3    0    0  0.44735167525E+02 -0.29118172677E+02  0.22156497831E+02  0.13825011902E+03  0.12559093048E+03 0.  0.
         25    2    3    3    0    0 -0.44735167525E+02  0.29118172677E+02 -0.25421534404E+02  0.13738626703E+03  0.12401463124E+03 0.  0.
          5    1    4    4  502    0 -0.26050145810E+02  0.31701173456E+02 -0.32122206578E+01  0.41424423433E+02  0.47000000000E+01 0.  1.
         -5    1    4    4    0  502  0.70785313335E+02 -0.60819346132E+02  0.25368718489E+02  0.96825695585E+02  0.47000000000E+01 0.  1.
          5    1    5    5  503    0 -0.33261509614E+02 -0.46422989391E+02 -0.20208146663E+01  0.57337558875E+02  0.47000000000E+01 0. -1.
         -5    1    5    5    0  503 -0.11473657911E+02  0.75541162068E+02 -0.23400719737E+02  0.80048708151E+02  0.47000000000E+01 0. -1.
<mgrwt>
<rscale>  0 0.27561705E+03</rscale>
<asrwt>0</asrwt>
<pdfrwt beam="1">  1        3 0.21453956E-01 0.27561705E+03</pdfrwt>
<pdfrwt beam="2">  1       -3 0.20951642E-01 0.27561705E+03</pdfrwt>
<totfact> 0.10407370E+03</totfact>
</mgrwt>
</event>
<event>
 9    1  0.2098759E-002  0.2753613E+03  0.7818608E-02  0.1098250E+00
         -1   -1    0    0    0  501 -0.00000000000E+00  0.00000000000E+00  0.47103757718E+02  0.47103757718E+02  0.00000000000E+00 0. -1.
          1   -1    0    0  501    0  0.00000000000E+00 -0.00000000000E+00 -0.40243004590E+03  0.40243004590E+03  0.00000000000E+00 0. -1.
         36    2    1    2    0    0 -0.14210854715E-13  0.14210854715E-13 -0.35532628818E+03  0.44953380362E+03  0.27536134355E+03 0.  0.
         25    2    3    3    0    0 -0.32746977909E+02  0.46920708896E+02 -0.13493773942E+03  0.19032002604E+03  0.12140675972E+03 0.  0.
         25    2    3    3    0    0  0.32746977909E+02 -0.46920708896E+02 -0.22038854876E+03  0.25921377758E+03  0.12388201071E+03 0.  0.
          5    1    4    4  502    0  0.35247066870E+02 -0.18157440725E+02 -0.42592802623E+02  0.58380520826E+02  0.47000000000E+01 0.  1.
         -5    1    4    4    0  502 -0.67994044779E+02  0.65078149621E+02 -0.92344936800E+02  0.13193950521E+03  0.47000000000E+01 0.  1.
          5    1    5    5  503    0  0.75086655724E+02 -0.33961680050E+02 -0.18415047441E+03  0.20180408521E+03  0.47000000000E+01 0. -1.
         -5    1    5    5    0  503 -0.42339677815E+02 -0.12959028845E+02 -0.36238074350E+02  0.57409692376E+02  0.47000000000E+01 0. -1.
<mgrwt>
<rscale>  0 0.27536134E+03</rscale>
<asrwt>0</asrwt>
<pdfrwt beam="1">  1        1 0.61912317E-01 0.27536134E+03</pdfrwt>
<pdfrwt beam="2">  1       -1 0.72467317E-02 0.27536134E+03</pdfrwt>
<totfact> 0.59898421E+03</totfact>
</mgrwt>
</event>
<event>
 9    1  0.2098759E-002  0.2752596E+03  0.7818608E-02  0.1098307E+00
         -1   -1    0    0    0  501 -0.00000000000E+00  0.00000000000E+00  0.28252539785E+02  0.28252539785E+02  0.00000000000E+00 0.  1.
          1   -1    0    0  501    0  0.00000000000E+00 -0.00000000000E+00 -0.67045172086E+03  0.67045172086E+03  0.00000000000E+00 0.  1.
         36    2    1    2    0    0  0.00000000000E+00 -0.14210854715E-13 -0.64219918107E+03  0.69870426064E+03  0.27525961504E+03 0.  0.
         25    2    3    3    0    0 -0.15477566445E+01 -0.60882371030E+02 -0.35824833234E+03  0.38498274171E+03  0.12712507674E+03 0.  0.
         25    2    3    3    0    0  0.15477566445E+01  0.60882371030E+02 -0.28395084873E+03  0.31372151894E+03  0.11867623306E+03 0.  0.
          5    1    4    4  502    0 -0.27731991458E+02 -0.48712673057E+02 -0.35013467595E+03  0.35462426478E+03  0.47000000000E+01 0.  1.
         -5    1    4    4    0  502  0.26184234814E+02 -0.12169697973E+02 -0.81136563897E+01  0.30358476930E+02  0.47000000000E+01 0.  1.
          5    1    5    5  503    0 -0.33258411341E+02 -0.16707452184E+02 -0.15283799573E+03  0.15737472422E+03  0.47000000000E+01 0. -1.
         -5    1    5    5    0  503  0.34806167986E+02  0.77589823213E+02 -0.13111285300E+03  0.15634679472E+03  0.47000000000E+01 0. -1.
<mgrwt>
<rscale>  0 0.27525962E+03</rscale>
<asrwt>0</asrwt>
<pdfrwt beam="1">  1        1 0.10314642E+00 0.27525962E+03</pdfrwt>
<pdfrwt beam="2">  1       -1 0.43465445E-02 0.27525962E+03</pdfrwt>
<totfact> 0.65014380E+03</totfact>
</mgrwt>
</event>
<event>
 9    1  0.2098759E-002  0.2749337E+03  0.7818608E-02  0.1098489E+00
          2   -1    0    0  501    0  0.00000000000E+00  0.00000000000E+00  0.31747974593E+03  0.31747974593E+03  0.00000000000E+00 0.  1.
         -2   -1    0    0    0  501 -0.00000000000E+00 -0.00000000000E+00 -0.59522350312E+02  0.59522350312E+02  0.00000000000E+00 0.  1.
         36    2    1    2    0    0  0.71054273576E-14  0.00000000000E+00  0.25795739562E+03  0.37700209624E+03  0.27493374223E+03 0.  0.
         25    2    3    3    0    0 -0.37901702516E+02 -0.25929911654E+02  0.15785498699E+03  0.20676722794E+03  0.12540171554E+03 0.  0.
         25    2    3    3    0    0  0.37901702516E+02  0.25929911654E+02  0.10010240863E+03  0.17023486830E+03  0.12980954818E+03 0.  0.
          5    1    4    4  502    0 -0.33781131124E+02  0.11332426322E+02  0.16452093363E+03  0.16840076101E+03  0.47000000000E+01 0.  1.
         -5    1    4    4    0  502 -0.41205713914E+01 -0.37262337976E+02 -0.66659466423E+01  0.38366466930E+02  0.47000000000E+01 0.  1.
          5    1    5    5  503    0 -0.40628340031E+02 -0.31016446058E+01  0.70013995357E+02  0.81143895388E+02  0.47000000000E+01 0.  1.
         -5    1    5    5    0  503  0.78530042547E+02  0.29031556260E+02  0.30088413273E+02  0.89090972913E+02  0.47000000000E+01 0.  1.
<mgrwt>
<rscale>  0 0.27493374E+03</rscale>
<asrwt>0</asrwt>
<pdfrwt beam="1">  1        2 0.48843037E-01 0.27493374E+03</pdfrwt>
<pdfrwt beam="2">  1       -2 0.91572849E-02 0.27493374E+03</pdfrwt>
<totfact> 0.77921051E+03</totfact>
</mgrwt>
</event>
<event>
 9    1  0.2098759E-002  0.2827150E+03  0.7818608E-02  0.1094215E+00
         -2   -1    0    0    0  501 -0.00000000000E+00  0.00000000000E+00  0.26062962586E+02  0.26062962586E+02  0.00000000000E+00 0.  1.
          2   -1    0    0  501    0  0.00000000000E+00 -0.00000000000E+00 -0.76667986110E+03  0.76667986110E+03  0.00000000000E+00 0.  1.
         36    2    1    2    0    0  0.00000000000E+00 -0.14210854715E-13 -0.74061689851E+03  0.79274282368E+03  0.28271504053E+03 0.  0.
         25    2    3    3    0    0  0.75814413650E+01 -0.55013551099E+02 -0.32834447617E+03  0.35812261090E+03  0.13174877741E+03 0.  0.
         25    2    3    3    0    0 -0.75814413650E+01  0.55013551099E+02 -0.41227242234E+03  0.43462021278E+03  0.12586584158E+03 0.  0.
          5    1    4    4  502    0  0.19383278911E+02  0.40894254460E+02 -0.12250190327E+03  0.13067845214E+03  0.47000000000E+01 0.  1.
         -5    1    4    4    0  502 -0.11801837546E+02 -0.95907805559E+02 -0.20584257290E+03  0.22744415876E+03  0.47000000000E+01 0.  1.
          5    1    5    5  503    0 -0.25846722294E+02  0.51372765159E+02 -0.65394746430E+02  0.87211105451E+02  0.47000000000E+01 0. -1.
         -5    1    5    5    0  503  0.18265280929E+02  0.36407859404E+01 -0.34687767591E+03  0.34740910733E+03  0.47000000000E+01 0. -1.
<mgrwt>
<rscale>  0 0.28271504E+03</rscale>
<asrwt>0</asrwt>
<pdfrwt beam="1">  1        2 0.11795075E+00 0.28271504E+03</pdfrwt>
<pdfrwt beam="2">  1       -2 0.40096866E-02 0.28271504E+03</pdfrwt>
<totfact> 0.10232489E+04</totfact>
</mgrwt>
</event>
<event>
 9    1  0.2098759E-002  0.2749708E+03  0.7818608E-02  0.1098468E+00
         -2   -1    0    0    0  501 -0.00000000000E+00  0.00000000000E+00  0.88662838905E+03  0.88662838905E+03  0.00000000000E+00 0.  1.
          2   -1    0    0  501    0  0.00000000000E+00 -0.00000000000E+00 -0.21319226537E+02  0.21319226537E+02  0.00000000000E+00 0.  1.
         36    2    1    2    0    0  0.00000000000E+00  0.00000000000E+00  0.86530916251E+03  0.90794761558E+03  0.27497077285E+03 0.  0.
         25    2    3    3    0    0  0.47853147560E+02 -0.10021739784E+02  0.39372572623E+03  0.41708295143E+03  0.12863857073E+03 0.  0.
         25    2    3    3    0    0 -0.47853147560E+02  0.10021739784E+02  0.47158343628E+03  0.49086466415E+03  0.12714881887E+03 0.  0.
          5    1    4    4  502    0  0.20837074513E+02  0.59250673132E+02  0.18944133544E+03  0.19963700938E+03  0.47000000000E+01 0. -1.
         -5    1    4    4    0  502  0.27016073047E+02 -0.69272412916E+02  0.20428439079E+03  0.21744594205E+03  0.47000000000E+01 0. -1.
          5    1    5    5  503    0  0.18345967357E+01 -0.53732896119E+02  0.15649182302E+03  0.16553661391E+03  0.47000000000E+01 0. -1.
         -5    1    5    5    0  503 -0.49687744296E+02  0.63754635904E+02  0.31509161326E+03  0.32532805025E+03  0.47000000000E+01 0. -1.
<mgrwt>
<rscale>  0 0.27497077E+03</rscale>
<asrwt>0</asrwt>
<pdfrwt beam="1">  1        2 0.32798817E-02 0.27497077E+03</pdfrwt>
<pdfrwt beam="2">  1       -2 0.13640434E+00 0.27497077E+03</pdfrwt>
<totfact> 0.11216679E+03</totfact>
</mgrwt>
</event>
<event>
 9    1  0.2098759E-002  0.2835060E+03  0.7818608E-02  0.1093789E+00
         -2   -1    0    0    0  501 -0.00000000000E+00  0.00000000000E+00  0.10499910508E+03  0.10499910508E+03  0.00000000000E+00 0.  1.
          2   -1    0    0  501    0  0.00000000000E+00 -0.00000000000E+00 -0.19137225487E+03  0.19137225487E+03  0.00000000000E+00 0.  1.
         36    2    1    2    0    0  0.00000000000E+00 -0.71054273576E-14 -0.86373149788E+02  0.29637135995E+03  0.28350601757E+03 0.  0.
         25    2    3    3    0    0  0.69369243194E+02 -0.42239917231E+02 -0.42049268004E+02  0.14025690016E+03  0.10633698602E+03 0.  0.
         25    2    3    3    0    0 -0.69369243194E+02  0.42239917231E+02 -0.44323881784E+02  0.15611445979E+03  0.12574106549E+03 0.  0.
          5    1    4    4  502    0 -0.70622219812E+01  0.12639586724E+02 -0.43446434242E+02  0.46036037842E+02  0.47000000000E+01 0. -1.
         -5    1    4    4    0  502  0.76431465175E+02 -0.54879503954E+02  0.13971662376E+01  0.94220862322E+02  0.47000000000E+01 0. -1.
          5    1    5    5  503    0  0.31971870699E+02  0.24516665818E+02  0.68126279245E+01  0.41131123472E+02  0.47000000000E+01 0. -1.
         -5    1    5    5    0  503 -0.10134111389E+03  0.17723251413E+02 -0.51136509709E+02  0.11498333632E+03  0.47000000000E+01 0. -1.
<mgrwt>
<rscale>  0 0.28350602E+03</rscale>
<asrwt>0</asrwt>
<pdfrwt beam="1">  1        2 0.29441885E-01 0.28350602E+03</pdfrwt>
<pdfrwt beam="2">  1       -2 0.16153709E-01 0.28350602E+03</pdfrwt>
<totfact> 0.53849184E+03</totfact>
</mgrwt>
</event>
<event>
 9    1  0.2098759E-002  0.2747991E+03  0.7818608E-02  0.1098564E+00
         -1   -1    0    0    0  501 -0.00000000000E+00  0.00000000000E+00  0.59803117478E+03  0.59803117478E+03  0.00000000000E+00 0. -1.
          1   -1    0    0  501    0  0.00000000000E+00 -0.00000000000E+00 -0.31567973547E+02  0.31567973547E+02  0.00000000000E+00 0. -1.
         36    2    1    2    0    0 -0.71054273576E-14  0.00000000000E+00  0.56646320123E+03  0.62959914833E+03  0.27479907064E+03 0.  0.
         25    2    3    3    0    0  0.52399751544E+02  0.37654924199E+02  0.35706391332E+03  0.38354805471E+03  0.12430142718E+03 0.  0.
         25    2    3    3    0    0 -0.52399751544E+02 -0.37654924199E+02  0.20939928792E+03  0.24605109362E+03  0.11193503300E+03 0.  0.
          5    1    4    4  502    0 -0.87640447991E+01 -0.34503490105E+02  0.17142263178E+03  0.17514310719E+03  0.47000000000E+01 0.  1.
         -5    1    4    4    0  502  0.61163796343E+02  0.72158414304E+02  0.18564128153E+03  0.20840494751E+03  0.47000000000E+01 0.  1.
          5    1    5    5  503    0 -0.87505548568E+01  0.39283291983E+02  0.61295429373E+02  0.73477676211E+02  0.47000000000E+01 0.  1.
         -5    1    5    5    0  503 -0.43649196687E+02 -0.76938216183E+02  0.14810385855E+03  0.17257341741E+03  0.47000000000E+01 0.  1.
<mgrwt>
<rscale>  0 0.27479907E+03</rscale>
<asrwt>0</asrwt>
<pdfrwt beam="1">  1        1 0.48566117E-02 0.27479907E+03</pdfrwt>
<pdfrwt beam="2">  1       -1 0.92004788E-01 0.27479907E+03</pdfrwt>
<totfact> 0.20968594E+03</totfact>
</mgrwt>
</event>
<event>
 9    1  0.2098759E-002  0.2741099E+03  0.7818608E-02  0.1098950E+00
          2   -1    0    0  501    0  0.00000000000E+00  0.00000000000E+00  0.12042178712E+03  0.12042178712E+03  0.00000000000E+00 0.  1.
         -2   -1    0    0    0  501 -0.00000000000E+00 -0.00000000000E+00 -0.15598561112E+03  0.15598561112E+03  0.00000000000E+00 0.  1.
         36    2    1    2    0    0  0.71054273576E-14  0.00000000000E+00 -0.35563824000E+02  0.27640739824E+03  0.27410994915E+03 0.  0.
         25    2    3    3    0    0  0.29881830359E+02 -0.30662445593E+02 -0.46564745958E+02  0.13900094388E+03  0.12377349263E+03 0.  0.
         25    2    3    3    0    0 -0.29881830359E+02  0.30662445593E+02  0.11000921959E+02  0.13740645436E+03  0.13010151444E+03 0.  0.
          5    1    4    4  502    0  0.28383558637E+02  0.45928266616E+02 -0.17941985846E+02  0.57087975366E+02  0.47000000000E+01 0. -1.
         -5    1    4    4    0  502  0.14982717217E+01 -0.76590712209E+02 -0.28622760112E+02  0.81912968517E+02  0.47000000000E+01 0. -1.
          5    1    5    5  503    0 -0.82280927565E+01 -0.47205186606E+02 -0.18012214661E+02  0.51405846262E+02  0.47000000000E+01 0.  1.
         -5    1    5    5    0  503 -0.21653737602E+02  0.77867632199E+02  0.29013136620E+02  0.86000608097E+02  0.47000000000E+01 0.  1.
<mgrwt>
<rscale>  0 0.27410995E+03</rscale>
<asrwt>0</asrwt>
<pdfrwt beam="1">  1        2 0.18526429E-01 0.27410995E+03</pdfrwt>
<pdfrwt beam="2">  1       -2 0.23997786E-01 0.27410995E+03</pdfrwt>
<totfact> 0.46094540E+03</totfact>
</mgrwt>
</event>
<event>
 9    1  0.2098759E-002  0.2750786E+03  0.7818608E-02  0.1098408E+00
         -1   -1    0    0    0  501 -0.00000000000E+00  0.00000000000E+00  0.73830292397E+03  0.73830292397E+03  0.00000000000E+00 0.  1.
          1   -1    0    0  501    0  0.00000000000E+00 -0.00000000000E+00 -0.25622359804E+02  0.25622359804E+02  0.00000000000E+00 0.  1.
         36    2    1    2    0    0 -0.71054273576E-14  0.17763568394E-14  0.71268056416E+03  0.76392528377E+03  0.27507862994E+03 0.  0.
         25    2    3    3    0    0 -0.47808325266E+02 -0.73716086231E+01  0.26779727271E+03  0.29995819605E+03  0.12617275271E+03 0.  0.
         25    2    3    3    0    0  0.47808325266E+02  0.73716086231E+01  0.44488329145E+03  0.46396708772E+03  0.12249219934E+03 0.  0.
          5    1    4    4  502    0 -0.53309372423E+02 -0.14978142819E+00  0.27940881620E+03  0.28448776458E+03  0.47000000000E+01 0. -1.
         -5    1    4    4    0  502  0.55010471562E+01 -0.72218271949E+01 -0.11611543487E+02  0.15470431474E+02  0.47000000000E+01 0. -1.
          5    1    5    5  503    0  0.35399160039E+02 -0.38642711621E+02  0.37834981970E+03  0.38199088439E+03  0.47000000000E+01 0. -1.
         -5    1    5    5    0  503  0.12409165227E+02  0.46014320244E+02  0.66533471755E+02  0.81976203333E+02  0.47000000000E+01 0. -1.
<mgrwt>
<rscale>  0 0.27507863E+03</rscale>
<asrwt>0</asrwt>
<pdfrwt beam="1">  1        1 0.39419021E-02 0.27507863E+03</pdfrwt>
<pdfrwt beam="2">  1       -1 0.11358505E+00 0.27507863E+03</pdfrwt>
<totfact> 0.17464748E+03</totfact>
</mgrwt>
</event>
<event>
 9    1  0.2098759E-002  0.2757389E+03  0.7818608E-02  0.1098039E+00
         -2   -1    0    0    0  501 -0.00000000000E+00  0.00000000000E+00  0.69726687783E+03  0.69726687783E+03  0.00000000000E+00 0.  1.
          2   -1    0    0  501    0  0.00000000000E+00 -0.00000000000E+00 -0.27260707144E+02  0.27260707144E+02  0.00000000000E+00 0.  1.
         36    2    1    2    0    0 -0.71054273576E-14 -0.71054273576E-14  0.67000617069E+03  0.72452758498E+03  0.27573892114E+03 0.  0.
         25    2    3    3    0    0  0.14777638256E+02  0.41664830017E+02  0.25006652215E+03  0.28455128663E+03  0.12838158970E+03 0.  0.
         25    2    3    3    0    0 -0.14777638256E+02 -0.41664830017E+02  0.41993964854E+03  0.43997629834E+03  0.12359408576E+03 0.  0.
          5    1    4    4  502    0  0.20667453930E+02  0.82142204018E+02  0.21253307502E+03  0.22883811595E+03  0.47000000000E+01 0. -1.
         -5    1    4    4    0  502 -0.58898156733E+01 -0.40477374000E+02  0.37533447126E+02  0.55713170685E+02  0.47000000000E+01 0. -1.
          5    1    5    5  503    0 -0.52856549837E+02  0.19225843903E+02  0.14038461155E+03  0.15130557523E+03  0.47000000000E+01 0. -1.
         -5    1    5    5    0  503  0.38078911581E+02 -0.60890673920E+02  0.27955503699E+03  0.28867072311E+03  0.47000000000E+01 0. -1.
<mgrwt>
<rscale>  0 0.27573892E+03</rscale>
<asrwt>0</asrwt>
<pdfrwt beam="1">  1        2 0.41939555E-02 0.27573892E+03</pdfrwt>
<pdfrwt beam="2">  1       -2 0.10727181E+00 0.27573892E+03</pdfrwt>
<totfact> 0.14448202E+03</totfact>
</mgrwt>
</event>
<event>
 9    1  0.2098759E-002  0.2747327E+03  0.7818608E-02  0.1098601E+00
          1   -1    0    0  501    0  0.00000000000E+00  0.00000000000E+00  0.21227928845E+03  0.21227928845E+03  0.00000000000E+00 0. -1.
         -1   -1    0    0    0  501 -0.00000000000E+00 -0.00000000000E+00 -0.88890009286E+02  0.88890009286E+02  0.00000000000E+00 0. -1.
         36    2    1    2    0    0 -0.71054273576E-14  0.00000000000E+00  0.12338927917E+03  0.30116929774E+03  0.27473265493E+03 0.  0.
         25    2    3    3    0    0 -0.55714425670E+02  0.23188482245E+02  0.98891006224E+01  0.12086922399E+03  0.10425819901E+03 0.  0.
         25    2    3    3    0    0  0.55714425670E+02 -0.23188482245E+02  0.11350017854E+03  0.18030007374E+03  0.12642793649E+03 0.  0.
          5    1    4    4  502    0 -0.61215458686E+02  0.54945165627E+02 -0.95427826641E+01  0.82942500015E+02  0.47000000000E+01 0. -1.
         -5    1    4    4    0  502  0.55010330159E+01 -0.31756683382E+02  0.19431883287E+02  0.37926723978E+02  0.47000000000E+01 0. -1.
          5    1    5    5  503    0 -0.69130778646E+01  0.45664907631E+02  0.30878805217E+02  0.55755403739E+02  0.47000000000E+01 0.  1.
         -5    1    5    5    0  503  0.62627503534E+02 -0.68853389875E+02  0.82621373327E+02  0.12454467001E+03  0.47000000000E+01 0.  1.
<mgrwt>
<rscale>  0 0.27473265E+03</rscale>
<asrwt>0</asrwt>
<pdfrwt beam="1">  1        1 0.32658352E-01 0.27473265E+03</pdfrwt>
<pdfrwt beam="2">  1       -1 0.13675386E-01 0.27473265E+03</pdfrwt>
<totfact> 0.50288875E+03</totfact>
</mgrwt>
</event>
<event>
 9    1  0.2098759E-002  0.2741607E+03  0.7818608E-02  0.1098922E+00
         -2   -1    0    0    0  501 -0.00000000000E+00  0.00000000000E+00  0.14211257441E+02  0.14211257441E+02  0.00000000000E+00 0. -1.
          2   -1    0    0  501    0  0.00000000000E+00 -0.00000000000E+00 -0.13222633765E+04  0.13222633765E+04  0.00000000000E+00 0. -1.
         36    2    1    2    0    0 -0.71054273576E-14 -0.35527136788E-14 -0.13080521190E+04  0.13364746339E+04  0.27416072109E+03 0.  0.
         25    2    3    3    0    0 -0.73593203912E+01  0.19479837289E+02 -0.84685033946E+03  0.85649927493E+03  0.12649856464E+03 0.  0.
         25    2    3    3    0    0  0.73593203912E+01 -0.19479837289E+02 -0.46120177958E+03  0.47997535899E+03  0.13128457675E+03 0.  0.
          5    1    4    4  502    0 -0.54185997354E+02  0.33972683473E+02 -0.26830916328E+03  0.27586620422E+03  0.47000000000E+01 0.  1.
         -5    1    4    4    0  502  0.46826676962E+02 -0.14492846184E+02 -0.57854117619E+03  0.58063307072E+03  0.47000000000E+01 0.  1.
          5    1    5    5  503    0 -0.47968287413E+02  0.24723983858E+02 -0.28342088148E+03  0.28855106660E+03  0.47000000000E+01 0. -1.
         -5    1    5    5    0  503  0.55327607804E+02 -0.44203821147E+02 -0.17778089810E+03  0.19142429240E+03  0.47000000000E+01 0. -1.
<mgrwt>
<rscale>  0 0.27416072E+03</rscale>
<asrwt>0</asrwt>
<pdfrwt beam="1">  1        2 0.20342512E+00 0.27416072E+03</pdfrwt>
<pdfrwt beam="2">  1       -2 0.21863474E-02 0.27416072E+03</pdfrwt>
<totfact> 0.11549869E+04</totfact>
</mgrwt>
</event>
<event>
 9    1  0.2098759E-002  0.2750095E+03  0.7818608E-02  0.1098446E+00
          1   -1    0    0  501    0  0.00000000000E+00  0.00000000000E+00  0.51616747265E+02  0.51616747265E+02  0.00000000000E+00 0. -1.
         -1   -1    0    0    0  501 -0.00000000000E+00 -0.00000000000E+00 -0.36630657675E+03  0.36630657675E+03  0.00000000000E+00 0. -1.
         36    2    1    2    0    0  0.71054273576E-14 -0.71054273576E-14 -0.31468982948E+03  0.41792332401E+03  0.27500948343E+03 0.  0.
         25    2    3    3    0    0  0.33058934261E+02 -0.56080818630E+02 -0.15373115765E+03  0.20429605245E+03  0.11775252380E+03 0.  0.
         25    2    3    3    0    0 -0.33058934261E+02  0.56080818630E+02 -0.16095867183E+03  0.21362727157E+03  0.12446270834E+03 0.  0.
          5    1    4    4  502    0 -0.41002389336E+01 -0.37315548837E+02  0.67555402978E+01  0.38431620693E+02  0.47000000000E+01 0. -1.
         -5    1    4    4    0  502  0.37159173195E+02 -0.18765269792E+02 -0.16048669795E+03  0.16586443175E+03  0.47000000000E+01 0. -1.
          5    1    5    5  503    0 -0.44932062510E+02 -0.27802362007E+02 -0.42803851957E+02  0.68162462668E+02  0.47000000000E+01 0.  1.
         -5    1    5    5    0  503  0.11873128249E+02  0.83883180637E+02 -0.11815481987E+03  0.14546480890E+03  0.47000000000E+01 0.  1.
<mgrwt>
<rscale>  0 0.27500948E+03</rscale>
<asrwt>0</asrwt>
<pdfrwt beam="1">  1        1 0.79410380E-02 0.27500948E+03</pdfrwt>
<pdfrwt beam="2">  1       -1 0.56354858E-01 0.27500948E+03</pdfrwt>
<totfact> 0.28703276E+03</totfact>
</mgrwt>
</event>
<event>
 9    1  0.2098759E-002  0.2751251E+03  0.7818608E-02  0.1098382E+00
          3   -1    0    0  501    0  0.00000000000E+00  0.00000000000E+00  0.12797028526E+02  0.12797028526E+02  0.00000000000E+00 0.  1.
         -3   -1    0    0    0  501 -0.00000000000E+00 -0.00000000000E+00 -0.14787385719E+04  0.14787385719E+04  0.00000000000E+00 0.  1.
         36    2    1    2    0    0  0.00000000000E+00  0.00000000000E+00 -0.14659415434E+04  0.14915356004E+04  0.27512513289E+03 0.  0.
         25    2    3    3    0    0  0.48280531240E+02 -0.85975185212E+01 -0.57374629234E+03  0.58921699811E+03  0.12484765061E+03 0.  0.
         25    2    3    3    0    0 -0.48280531240E+02  0.85975185212E+01 -0.89219525103E+03  0.90231860232E+03  0.12554507995E+03 0.  0.
          5    1    4    4  502    0 -0.28409790941E+02  0.21204699476E+02 -0.32965329672E+03  0.33158730606E+03  0.47000000000E+01 0.  1.
         -5    1    4    4    0  502  0.76690322181E+02 -0.29802217997E+02 -0.24409299562E+03  0.25762969204E+03  0.47000000000E+01 0.  1.
          5    1    5    5  503    0  0.25048821302E+02  0.43481711157E+02 -0.43878556977E+03  0.44167065659E+03  0.47000000000E+01 0. -1.
         -5    1    5    5    0  503 -0.73329352542E+02 -0.34884192636E+02 -0.45340968127E+03  0.46064794573E+03  0.47000000000E+01 0. -1.
<mgrwt>
<rscale>  0 0.27512513E+03</rscale>
<asrwt>0</asrwt>
<pdfrwt beam="1">  1        3 0.19687737E-02 0.27512513E+03</pdfrwt>
<pdfrwt beam="2">  1       -3 0.22749823E+00 0.27512513E+03</pdfrwt>
<totfact> 0.27116407E+02</totfact>
</mgrwt>
</event>
<event>
 9    1  0.2098759E-002  0.2747199E+03  0.7818608E-02  0.1098608E+00
          2   -1    0    0  501    0  0.00000000000E+00  0.00000000000E+00  0.62381900451E+03  0.62381900451E+03  0.00000000000E+00 0. -1.
         -2   -1    0    0    0  501 -0.00000000000E+00 -0.00000000000E+00 -0.30245564774E+02  0.30245564774E+02  0.00000000000E+00 0. -1.
         36    2    1    2    0    0 -0.35527136788E-14  0.00000000000E+00  0.59357343974E+03  0.65406456929E+03  0.27471991634E+03 0.  0.
         25    2    3    3    0    0  0.16151492692E+02  0.50973043270E+02  0.36430043677E+03  0.38661000688E+03  0.11787012911E+03 0.  0.
         25    2    3    3    0    0 -0.16151492692E+02 -0.50973043270E+02  0.22927300297E+03  0.26745456240E+03  0.12691221849E+03 0.  0.
          5    1    4    4  502    0 -0.20039767457E+02 -0.17029204279E+01  0.27978489763E+03  0.28054620147E+03  0.47000000000E+01 0. -1.
         -5    1    4    4    0  502  0.36191260149E+02  0.52675963698E+02  0.84515539135E+02  0.10606380541E+03  0.47000000000E+01 0. -1.
          5    1    5    5  503    0  0.51042251176E+01  0.16913952250E+02  0.17968514292E+03  0.18061277773E+03  0.47000000000E+01 0. -1.
         -5    1    5    5    0  503 -0.21255717809E+02 -0.67886995520E+02  0.49587860053E+02  0.86841784671E+02  0.47000000000E+01 0. -1.
<mgrwt>
<rscale>  0 0.27471992E+03</rscale>
<asrwt>0</asrwt>
<pdfrwt beam="1">  1        2 0.95972145E-01 0.27471992E+03</pdfrwt>
<pdfrwt beam="2">  1       -2 0.46531643E-02 0.27471992E+03</pdfrwt>
<totfact> 0.10480472E+04</totfact>
</mgrwt>
</event>
<event>
 9    1  0.2098759E-002  0.2754473E+03  0.7818608E-02  0.1098202E+00
         -2   -1    0    0    0  501 -0.00000000000E+00  0.00000000000E+00  0.77201432723E+01  0.77201432723E+01  0.00000000000E+00 0.  1.
          2   -1    0    0  501    0  0.00000000000E+00 -0.00000000000E+00 -0.24569232901E+04  0.24569232901E+04  0.00000000000E+00 0.  1.
         36    2    1    2    0    0  0.71054273576E-14  0.00000000000E+00 -0.24492031469E+04  0.24646434334E+04  0.27544727124E+03 0.  0.
         25    2    3    3    0    0  0.22066822048E+02 -0.40113904569E+02 -0.10738262090E+04  0.10828232204E+04  0.13155732410E+03 0.  0.
         25    2    3    3    0    0 -0.22066822048E+02  0.40113904569E+02 -0.13753769378E+04  0.13818202130E+04  0.12517711412E+03 0.  0.
          5    1    4    4  502    0  0.58795905493E+01 -0.79359523783E+02 -0.41329686957E+03  0.42091435708E+03  0.47000000000E+01 0. -1.
         -5    1    4    4    0  502  0.16187231499E+02  0.39245619214E+02 -0.66052933946E+03  0.66190886335E+03  0.47000000000E+01 0. -1.
          5    1    5    5  503    0  0.49556466582E+02  0.32636259903E+01 -0.39698909876E+03  0.40011114602E+03  0.47000000000E+01 0. -1.
         -5    1    5    5    0  503 -0.71623288630E+02  0.36850278579E+02 -0.97838783906E+03  0.98170906695E+03  0.47000000000E+01 0. -1.
<mgrwt>
<rscale>  0 0.27544727E+03</rscale>
<asrwt>0</asrwt>
<pdfrwt beam="1">  1        2 0.37798850E+00 0.27544727E+03</pdfrwt>
<pdfrwt beam="2">  1       -2 0.11877134E-02 0.27544727E+03</pdfrwt>
<totfact> 0.70272015E+03</totfact>
</mgrwt>
</event>
<event>
 9    1  0.2098759E-002  0.2752637E+03  0.7818608E-02  0.1098304E+00
          2   -1    0    0  501    0  0.00000000000E+00  0.00000000000E+00  0.11597626900E+04  0.11597626900E+04  0.00000000000E+00 0.  1.
         -2   -1    0    0    0  501 -0.00000000000E+00 -0.00000000000E+00 -0.16333110247E+02  0.16333110247E+02  0.00000000000E+00 0.  1.
         36    2    1    2    0    0  0.35527136788E-14  0.35527136788E-14  0.11434295797E+04  0.11760958002E+04  0.27526374172E+03 0.  0.
         25    2    3    3    0    0 -0.42177672463E+01 -0.14465919775E+02  0.86253718210E+03  0.87180552317E+03  0.12588656538E+03 0.  0.
         25    2    3    3    0    0  0.42177672463E+01  0.14465919775E+02  0.28089239763E+03  0.30429027705E+03  0.11603870588E+03 0.  0.
          5    1    4    4  502    0  0.55490892956E+02 -0.27449489399E+02  0.33345739070E+03  0.33918820009E+03  0.47000000000E+01 0.  1.
         -5    1    4    4    0  502 -0.59708660202E+02  0.12983569624E+02  0.52907979140E+03  0.53261732308E+03  0.47000000000E+01 0.  1.
          5    1    5    5  503    0  0.31993719321E+02 -0.41481276507E+02  0.10225633223E+03  0.11499018157E+03  0.47000000000E+01 0. -1.
         -5    1    5    5    0  503 -0.27775952074E+02  0.55947196281E+02  0.17863606540E+03  0.18930009548E+03  0.47000000000E+01 0. -1.
<mgrwt>
<rscale>  0 0.27526374E+03</rscale>
<asrwt>0</asrwt>
<pdfrwt beam="1">  1        2 0.17842496E+00 0.27526374E+03</pdfrwt>
<pdfrwt beam="2">  1       -2 0.25127871E-02 0.27526374E+03</pdfrwt>
<totfact> 0.11606822E+04</totfact>
</mgrwt>
</event>
<event>
 9    1  0.2098759E-002  0.2746273E+03  0.7818608E-02  0.1098660E+00
         -2   -1    0    0    0  501 -0.00000000000E+00  0.00000000000E+00  0.80183275375E+02  0.80183275375E+02  0.00000000000E+00 0.  1.
          2   -1    0    0  501    0  0.00000000000E+00 -0.00000000000E+00 -0.23514930509E+03  0.23514930509E+03  0.00000000000E+00 0.  1.
         36    2    1    2    0    0  0.71054273576E-14  0.35527136788E-14 -0.15496602972E+03  0.31533258047E+03  0.27462732191E+03 0.  0.
         25    2    3    3    0    0  0.20469017746E+02 -0.26379089541E+02 -0.27772072269E+02  0.13011258259E+03  0.12265055686E+03 0.  0.
         25    2    3    3    0    0 -0.20469017746E+02  0.26379089541E+02 -0.12719395745E+03  0.18521999788E+03  0.13043507102E+03 0.  0.
          5    1    4    4  502    0  0.47301002258E+02 -0.60135632466E+02  0.33487435103E+01  0.76726678475E+02  0.47000000000E+01 0.  1.
         -5    1    4    4    0  502 -0.26831984512E+02  0.33756542925E+02 -0.31120815780E+02  0.53385904112E+02  0.47000000000E+01 0.  1.
          5    1    5    5  503    0  0.35982464565E+02 -0.10627490857E+02 -0.10867898784E+03  0.11506908237E+03  0.47000000000E+01 0.  1.
         -5    1    5    5    0  503 -0.56451482311E+02  0.37006580397E+02 -0.18514969604E+02  0.70150915513E+02  0.47000000000E+01 0.  1.
<mgrwt>
<rscale>  0 0.27462732E+03</rscale>
<asrwt>0</asrwt>
<pdfrwt beam="1">  1        2 0.36176815E-01 0.27462732E+03</pdfrwt>
<pdfrwt beam="2">  1       -2 0.12335889E-01 0.27462732E+03</pdfrwt>
<totfact> 0.66891152E+03</totfact>
</mgrwt>
</event>
<event>
 9    1  0.2098759E-002  0.2760501E+03  0.7818608E-02  0.1097866E+00
         -2   -1    0    0    0  501 -0.00000000000E+00  0.00000000000E+00  0.25759173187E+02  0.25759173187E+02  0.00000000000E+00 0.  1.
          2   -1    0    0  501    0  0.00000000000E+00 -0.00000000000E+00 -0.73957764012E+03  0.73957764012E+03  0.00000000000E+00 0.  1.
         36    2    1    2    0    0  0.00000000000E+00  0.00000000000E+00 -0.71381846693E+03  0.76533681331E+03  0.27605005718E+03 0.  0.
         25    2    3    3    0    0  0.81497543762E+01 -0.44653200598E+02 -0.25909815948E+03  0.29085084440E+03  0.12410491779E+03 0.  0.
         25    2    3    3    0    0 -0.81497543762E+01  0.44653200598E+02 -0.45472030745E+03  0.47448596891E+03  0.12769514426E+03 0.  0.
          5    1    4    4  502    0 -0.46748805617E+02  0.11991664143E+02 -0.63533262346E+02  0.79923815348E+02  0.47000000000E+01 0.  1.
         -5    1    4    4    0  502  0.54898559993E+02 -0.56644864741E+02 -0.19556489714E+03  0.21092702905E+03  0.47000000000E+01 0.  1.
          5    1    5    5  503    0  0.60698934990E+01 -0.20321317211E+02 -0.85247550793E+01  0.23335830592E+02  0.47000000000E+01 0.  1.
         -5    1    5    5    0  503 -0.14219647875E+02  0.64974517808E+02 -0.44619555237E+03  0.45115013832E+03  0.47000000000E+01 0.  1.
<mgrwt>
<rscale>  0 0.27605006E+03</rscale>
<asrwt>0</asrwt>
<pdfrwt beam="1">  1        2 0.11378117E+00 0.27605006E+03</pdfrwt>
<pdfrwt beam="2">  1       -2 0.39629501E-02 0.27605006E+03</pdfrwt>
<totfact> 0.10882888E+04</totfact>
</mgrwt>
</event>
<event>
 9    1  0.2098759E-002  0.2760307E+03  0.7818608E-02  0.1097877E+00
          1   -1    0    0  501    0  0.00000000000E+00  0.00000000000E+00  0.29392781935E+03  0.29392781935E+03  0.00000000000E+00 0. -1.
         -1   -1    0    0    0  501 -0.00000000000E+00 -0.00000000000E+00 -0.64805815183E+02  0.64805815183E+02  0.00000000000E+00 0. -1.
         36    2    1    2    0    0  0.71054273576E-14  0.00000000000E+00  0.22912200417E+03  0.35873363453E+03  0.27603066451E+03 0.  0.
         25    2    3    3    0    0 -0.55193540581E+02 -0.87825597040E+01  0.12471483730E+03  0.18678533368E+03  0.12732442797E+03 0.  0.
         25    2    3    3    0    0  0.55193540581E+02  0.87825597040E+01  0.10440716687E+03  0.17194830085E+03  0.12466716247E+03 0.  0.
          5    1    4    4  502    0 -0.21058946541E+02  0.32175016219E+01 -0.24714753759E+02  0.32965748883E+02  0.47000000000E+01 0.  1.
         -5    1    4    4    0  502 -0.34134594040E+02 -0.12000061326E+02  0.14942959106E+03  0.15381958480E+03  0.47000000000E+01 0.  1.
          5    1    5    5  503    0 -0.47261739577E+00 -0.43106830246E+02  0.81529517039E+02  0.92344866288E+02  0.47000000000E+01 0. -1.
         -5    1    5    5    0  503  0.55666157977E+02  0.51889389950E+02  0.22877649827E+02  0.79603434567E+02  0.47000000000E+01 0. -1.
<mgrwt>
<rscale>  0 0.27603066E+03</rscale>
<asrwt>0</asrwt>
<pdfrwt beam="1">  1        1 0.45219664E-01 0.27603066E+03</pdfrwt>
<pdfrwt beam="2">  1       -1 0.99701256E-02 0.27603066E+03</pdfrwt>
<totfact> 0.54715702E+03</totfact>
</mgrwt>
</event>
<event>
 9    1  0.2098759E-002  0.2750809E+03  0.7818608E-02  0.1098406E+00
         -2   -1    0    0    0  501 -0.00000000000E+00  0.00000000000E+00  0.67725154381E+02  0.67725154381E+02  0.00000000000E+00 0.  1.
          2   -1    0    0  501    0  0.00000000000E+00 -0.00000000000E+00 -0.27932565070E+03  0.27932565070E+03  0.00000000000E+00 0.  1.
         36    2    1    2    0    0  0.00000000000E+00  0.00000000000E+00 -0.21160049632E+03  0.34705080508E+03  0.27508088132E+03 0.  0.
         25    2    3    3    0    0 -0.36103078067E+02 -0.16468811111E+02 -0.53635652078E+02  0.14231118264E+03  0.12570217001E+03 0.  0.
         25    2    3    3    0    0  0.36103078067E+02  0.16468811111E+02 -0.15796484424E+03  0.20473962244E+03  0.12405953005E+03 0.  0.
          5    1    4    4  502    0 -0.59657661869E+02  0.39990498736E+01 -0.80831674174E+02  0.10065226559E+03  0.47000000000E+01 0. -1.
         -5    1    4    4    0  502  0.23554583802E+02 -0.20467860984E+02  0.27196022096E+02  0.41658917043E+02  0.47000000000E+01 0. -1.
          5    1    5    5  503    0  0.77621426749E+02  0.20795412241E+02 -0.67705437059E+02  0.10518389263E+03  0.47000000000E+01 0.  1.
         -5    1    5    5    0  503 -0.41518348682E+02 -0.43266011303E+01 -0.90259407181E+02  0.99555729816E+02  0.47000000000E+01 0.  1.
<mgrwt>
<rscale>  0 0.27508088E+03</rscale>
<asrwt>0</asrwt>
<pdfrwt beam="1">  1        2 0.42973177E-01 0.27508088E+03</pdfrwt>
<pdfrwt beam="2">  1       -2 0.10419254E-01 0.27508088E+03</pdfrwt>
<totfact> 0.72864677E+03</totfact>
</mgrwt>
</event>
<event>
 9    1  0.2098759E-002  0.2730374E+03  0.7818608E-02  0.1099554E+00
         -1   -1    0    0    0  501 -0.00000000000E+00  0.00000000000E+00  0.11005092797E+02  0.11005092797E+02  0.00000000000E+00 0. -1.
          1   -1    0    0  501    0  0.00000000000E+00 -0.00000000000E+00 -0.16935205794E+04  0.16935205794E+04  0.00000000000E+00 0. -1.
         36    2    1    2    0    0  0.00000000000E+00  0.17763568394E-14 -0.16825154866E+04  0.17045256722E+04  0.27303736836E+03 0.  0.
         25    2    3    3    0    0  0.39258004633E+02 -0.52121733656E+01 -0.55516673385E+03  0.56936477345E+03  0.11999077128E+03 0.  0.
         25    2    3    3    0    0 -0.39258004633E+02  0.52121733656E+01 -0.11273487528E+04  0.11351608988E+04  0.12691216660E+03 0.  0.
          5    1    4    4  502    0  0.70662161886E+02  0.26484746618E+02 -0.25870717841E+03  0.26952936220E+03  0.47000000000E+01 0. -1.
         -5    1    4    4    0  502 -0.31404157253E+02 -0.31696919984E+02 -0.29645955544E+03  0.29983541126E+03  0.47000000000E+01 0. -1.
          5    1    5    5  503    0  0.27684094774E+02 -0.14425918637E+02 -0.79058032196E+03  0.79121037133E+03  0.47000000000E+01 0. -1.
         -5    1    5    5    0  503 -0.66942099407E+02  0.19638092003E+02 -0.33676843081E+03  0.34395052744E+03  0.47000000000E+01 0. -1.
<mgrwt>
<rscale>  0 0.27303737E+03</rscale>
<asrwt>0</asrwt>
<pdfrwt beam="1">  1        1 0.26054145E+00 0.27303737E+03</pdfrwt>
<pdfrwt beam="2">  1       -1 0.16930924E-02 0.27303737E+03</pdfrwt>
<totfact> 0.46697932E+03</totfact>
</mgrwt>
</event>
<event>
 9    1  0.2098759E-002  0.2858184E+03  0.7818608E-02  0.1092553E+00
         -2   -1    0    0    0  501 -0.00000000000E+00  0.00000000000E+00  0.14205296372E+02  0.14205296372E+02  0.00000000000E+00 0.  1.
          2   -1    0    0  501    0  0.00000000000E+00 -0.00000000000E+00 -0.14377056470E+04  0.14377056470E+04  0.00000000000E+00 0.  1.
         36    2    1    2    0    0  0.35527136788E-14  0.00000000000E+00 -0.14235003506E+04  0.14519109434E+04  0.28581836758E+03 0.  0.
         25    2    3    3    0    0  0.28385892952E+02 -0.69923811248E+02 -0.74406274186E+03  0.75693222252E+03  0.11671301289E+03 0.  0.
         25    2    3    3    0    0 -0.28385892952E+02  0.69923811248E+02 -0.67943760878E+03  0.69497872086E+03  0.12515933813E+03 0.  0.
          5    1    4    4  502    0  0.52604145046E+02 -0.13546612176E+02 -0.56429906545E+03  0.56692700769E+03  0.47000000000E+01 0.  1.
         -5    1    4    4    0  502 -0.24218252094E+02 -0.56377199073E+02 -0.17976367641E+03  0.19000521484E+03  0.47000000000E+01 0.  1.
          5    1    5    5  503    0 -0.26471887422E+02  0.31960834300E+02 -0.63475443477E+03  0.63612698277E+03  0.47000000000E+01 0.  1.
         -5    1    5    5    0  503 -0.19140055294E+01  0.37962976949E+02 -0.44683174018E+02  0.58851738091E+02  0.47000000000E+01 0.  1.
<mgrwt>
<rscale>  0 0.28581837E+03</rscale>
<asrwt>0</asrwt>
<pdfrwt beam="1">  1        2 0.22118545E+00 0.28581837E+03</pdfrwt>
<pdfrwt beam="2">  1       -2 0.21854306E-02 0.28581837E+03</pdfrwt>
<totfact> 0.10006154E+04</totfact>
</mgrwt>
</event>
<event>
 9    1  0.2098759E-002  0.2750609E+03  0.7818608E-02  0.1098418E+00
         -2   -1    0    0    0  501 -0.00000000000E+00  0.00000000000E+00  0.32620361555E+02  0.32620361555E+02  0.00000000000E+00 0. -1.
          2   -1    0    0  501    0  0.00000000000E+00 -0.00000000000E+00 -0.57984121231E+03  0.57984121231E+03  0.00000000000E+00 0. -1.
         36    2    1    2    0    0 -0.71054273576E-14  0.00000000000E+00 -0.54722085075E+03  0.61246157386E+03  0.27506093863E+03 0.  0.
         25    2    3    3    0    0 -0.36422491533E+02  0.76847820196E+01 -0.25534360064E+03  0.28513213013E+03  0.12130261120E+03 0.  0.
         25    2    3    3    0    0  0.36422491533E+02 -0.76847820196E+01 -0.29187725012E+03  0.32732944373E+03  0.14341053599E+03 0.  0.
          5    1    4    4  502    0  0.54177001096E+01  0.49122401557E+02 -0.19284835421E+03  0.19913548034E+03  0.47000000000E+01 0.  1.
         -5    1    4    4    0  502 -0.41840191642E+02 -0.41437619537E+02 -0.62495246428E+02  0.85996649794E+02  0.47000000000E+01 0.  1.
          5    1    5    5  503    0  0.66279491559E+02 -0.53944401338E+02 -0.12461148348E+03  0.15117235611E+03  0.47000000000E+01 0.  1.
         -5    1    5    5    0  503 -0.29857000026E+02  0.46259619318E+02 -0.16726576664E+03  0.17615708762E+03  0.47000000000E+01 0.  1.
<mgrwt>
<rscale>  0 0.27506094E+03</rscale>
<asrwt>0</asrwt>
<pdfrwt beam="1">  1        2 0.89206342E-01 0.27506094E+03</pdfrwt>
<pdfrwt beam="2">  1       -2 0.50185171E-02 0.27506094E+03</pdfrwt>
<totfact> 0.10174221E+04</totfact>
</mgrwt>
</event>
<event>
 9    1  0.2098759E-002  0.2786209E+03  0.7818608E-02  0.1096445E+00
         -2   -1    0    0    0  501 -0.00000000000E+00  0.00000000000E+00  0.35704634389E+02  0.35704634389E+02  0.00000000000E+00 0. -1.
          2   -1    0    0  501    0  0.00000000000E+00 -0.00000000000E+00 -0.54355417266E+03  0.54355417266E+03  0.00000000000E+00 0. -1.
         36    2    1    2    0    0  0.00000000000E+00  0.00000000000E+00 -0.50784953827E+03  0.57925880704E+03  0.27862091095E+03 0.  0.
         25    2    3    3    0    0 -0.52989850269E+01 -0.36443574381E+02 -0.17247232948E+03  0.21635949251E+03  0.12533360365E+03 0.  0.
         25    2    3    3    0    0  0.52989850269E+01  0.36443574381E+02 -0.33537720878E+03  0.36289931454E+03  0.13364814614E+03 0.  0.
          5    1    4    4  502    0 -0.23746890346E+02  0.12311875174E+01 -0.17245298913E+03  0.17414808091E+03  0.47000000000E+01 0. -1.
         -5    1    4    4    0  502  0.18447905319E+02 -0.37674761898E+02 -0.19340350132E-01  0.42211411594E+02  0.47000000000E+01 0. -1.
          5    1    5    5  503    0  0.35889953484E+02 -0.14057977251E+01 -0.30090185794E+03  0.30307438549E+03  0.47000000000E+01 0.  1.
         -5    1    5    5    0  503 -0.30590968457E+02  0.37849372106E+02 -0.34475350841E+02  0.59824929048E+02  0.47000000000E+01 0.  1.
<mgrwt>
<rscale>  0 0.27862091E+03</rscale>
<asrwt>0</asrwt>
<pdfrwt beam="1">  1        2 0.83623712E-01 0.27862091E+03</pdfrwt>
<pdfrwt beam="2">  1       -2 0.54930211E-02 0.27862091E+03</pdfrwt>
<totfact> 0.95507846E+03</totfact>
</mgrwt>
</event>
<event>
 9    1  0.2098759E-002  0.2744038E+03  0.7818608E-02  0.1098785E+00
          2   -1    0    0  501    0  0.00000000000E+00  0.00000000000E+00  0.10260772536E+04  0.10260772536E+04  0.00000000000E+00 0.  1.
         -2   -1    0    0    0  501 -0.00000000000E+00 -0.00000000000E+00 -0.18345949896E+02  0.18345949896E+02  0.00000000000E+00 0.  1.
         36    2    1    2    0    0 -0.71054273576E-14  0.00000000000E+00  0.10077313037E+04  0.10444232035E+04  0.27440380379E+03 0.  0.
         25    2    3    3    0    0 -0.35329888292E+02 -0.43270025008E+02  0.50179072926E+03  0.51998225172E+03  0.12436683664E+03 0.  0.
         25    2    3    3    0    0  0.35329888292E+02  0.43270025008E+02  0.50594057444E+03  0.52444095177E+03  0.12626143895E+03 0.  0.
          5    1    4    4  502    0 -0.52180495501E+02 -0.71475587480E+02  0.23534832023E+03  0.25148058683E+03  0.47000000000E+01 0. -1.
         -5    1    4    4    0  502  0.16850607208E+02  0.28205562472E+02  0.26644240904E+03  0.26850166489E+03  0.47000000000E+01 0. -1.
          5    1    5    5  503    0  0.57243605063E+02  0.54423334238E+02  0.16937607516E+03  0.18694671559E+03  0.47000000000E+01 0.  1.
         -5    1    5    5    0  503 -0.21913716771E+02 -0.11153309230E+02  0.33656449927E+03  0.33749423619E+03  0.47000000000E+01 0.  1.
<mgrwt>
<rscale>  0 0.27440380E+03</rscale>
<asrwt>0</asrwt>
<pdfrwt beam="1">  1        2 0.15785799E+00 0.27440380E+03</pdfrwt>
<pdfrwt beam="2">  1       -2 0.28224546E-02 0.27440380E+03</pdfrwt>
<totfact> 0.11712140E+04</totfact>
</mgrwt>
</event>
<event>
 9    1  0.2098759E-002  0.2743655E+03  0.7818608E-02  0.1098807E+00
          1   -1    0    0  501    0  0.00000000000E+00  0.00000000000E+00  0.63523434454E+02  0.63523434454E+02  0.00000000000E+00 0. -1.
         -1   -1    0    0    0  501 -0.00000000000E+00 -0.00000000000E+00 -0.29625449845E+03  0.29625449845E+03  0.00000000000E+00 0. -1.
         36    2    1    2    0    0  0.35527136788E-14  0.71054273576E-14 -0.23273106399E+03  0.35977793290E+03  0.27436547315E+03 0.  0.
         25    2    3    3    0    0 -0.27044557755E+02  0.14091613137E+02 -0.55500060212E+02  0.13929744902E+03  0.12407070950E+03 0.  0.
         25    2    3    3    0    0  0.27044557755E+02 -0.14091613137E+02 -0.17723100378E+03  0.22048048388E+03  0.12755717701E+03 0.  0.
          5    1    4    4  502    0 -0.21693622677E+01  0.65698681722E+02 -0.11476283660E+02  0.66894080450E+02  0.47000000000E+01 0. -1.
         -5    1    4    4    0  502 -0.24875195487E+02 -0.51607068585E+02 -0.44023776552E+02  0.72403368571E+02  0.47000000000E+01 0. -1.
          5    1    5    5  503    0  0.23172716235E+01  0.44259208775E+02 -0.13979029517E+03  0.14672308589E+03  0.47000000000E+01 0.  1.
         -5    1    5    5    0  503  0.24727286131E+02 -0.58350821912E+02 -0.37440708614E+02  0.73757397994E+02  0.47000000000E+01 0.  1.
<mgrwt>
<rscale>  0 0.27436547E+03</rscale>
<asrwt>0</asrwt>
<pdfrwt beam="1">  1        1 0.97728360E-02 0.27436547E+03</pdfrwt>
<pdfrwt beam="2">  1       -1 0.45577616E-01 0.27436547E+03</pdfrwt>
<totfact> 0.32128889E+03</totfact>
</mgrwt>
</event>
<event>
 9    1  0.2098759E-002  0.2745584E+03  0.7818608E-02  0.1098699E+00
          2   -1    0    0  501    0  0.00000000000E+00  0.00000000000E+00  0.24303001161E+03  0.24303001161E+03  0.00000000000E+00 0. -1.
         -2   -1    0    0    0  501 -0.00000000000E+00 -0.00000000000E+00 -0.77544266903E+02  0.77544266903E+02  0.00000000000E+00 0. -1.
         36    2    1    2    0    0  0.00000000000E+00  0.00000000000E+00  0.16548574471E+03  0.32057427852E+03  0.27455843885E+03 0.  0.
         25    2    3    3    0    0  0.26771862489E+02  0.46887433336E+02  0.97010835956E+02  0.16804551350E+03  0.12614685207E+03 0.  0.
         25    2    3    3    0    0 -0.26771862489E+02 -0.46887433336E+02  0.68474908753E+02  0.15252876502E+03  0.12514410495E+03 0.  0.
          5    1    4    4  502    0  0.48006103809E+02  0.27041389861E+02 -0.10751177017E+02  0.56333831538E+02  0.47000000000E+01 0. -1.
         -5    1    4    4    0  502 -0.21234241320E+02  0.19846043475E+02  0.10776201297E+03  0.11171168196E+03  0.47000000000E+01 0. -1.
          5    1    5    5  503    0 -0.21982335539E+02 -0.49769619871E+02 -0.24081580434E+02  0.59684593104E+02  0.47000000000E+01 0. -1.
         -5    1    5    5    0  503 -0.47895269498E+01  0.28821865347E+01  0.92556489187E+02  0.92844171913E+02  0.47000000000E+01 0. -1.
<mgrwt>
<rscale>  0 0.27455844E+03</rscale>
<asrwt>0</asrwt>
<pdfrwt beam="1">  1        2 0.37389232E-01 0.27455844E+03</pdfrwt>
<pdfrwt beam="2">  1       -2 0.11929887E-01 0.27455844E+03</pdfrwt>
<totfact> 0.68132124E+03</totfact>
</mgrwt>
</event>
<event>
 9    1  0.2098759E-002  0.2748859E+03  0.7818608E-02  0.1098515E+00
         -3   -1    0    0    0  501 -0.00000000000E+00  0.00000000000E+00  0.66382623098E+03  0.66382623098E+03  0.00000000000E+00 0. -1.
          3   -1    0    0  501    0  0.00000000000E+00 -0.00000000000E+00 -0.28457083323E+02  0.28457083323E+02  0.00000000000E+00 0. -1.
         36    2    1    2    0    0  0.00000000000E+00 -0.71054273576E-14  0.63536914766E+03  0.69228331431E+03  0.27488585534E+03 0.  0.
         25    2    3    3    0    0 -0.31860297557E+02  0.43985935263E+02  0.37339793216E+03  0.39685569004E+03  0.12295764278E+03 0.  0.
         25    2    3    3    0    0  0.31860297557E+02 -0.43985935263E+02  0.26197121550E+03  0.29542762426E+03  0.12529454244E+03 0.  0.
          5    1    4    4  502    0  0.46421189401E+02  0.26368123866E+02  0.16548513189E+03  0.17394718640E+03  0.47000000000E+01 0. -1.
         -5    1    4    4    0  502 -0.78281486957E+02  0.17617811397E+02  0.20791280027E+03  0.22290850364E+03  0.47000000000E+01 0. -1.
          5    1    5    5  503    0 -0.38851852011E+02 -0.52090103966E+02  0.12012473595E+03  0.13665609216E+03  0.47000000000E+01 0.  1.
         -5    1    5    5    0  503  0.70712149568E+02  0.81041687029E+01  0.14184647955E+03  0.15877153211E+03  0.47000000000E+01 0.  1.
<mgrwt>
<rscale>  0 0.27488586E+03</rscale>
<asrwt>0</asrwt>
<pdfrwt beam="1">  1        3 0.43780133E-02 0.27488586E+03</pdfrwt>
<pdfrwt beam="2">  1       -3 0.10212710E+00 0.27488586E+03</pdfrwt>
<totfact> 0.61593054E+02</totfact>
</mgrwt>
</event>
<event>
 9    1  0.2098759E-002  0.2747729E+03  0.7818608E-02  0.1098579E+00
         -2   -1    0    0    0  501 -0.00000000000E+00  0.00000000000E+00  0.75867939737E+01  0.75867939737E+01  0.00000000000E+00 0. -1.
          2   -1    0    0  501    0  0.00000000000E+00 -0.00000000000E+00 -0.24878805826E+04  0.24878805826E+04  0.00000000000E+00 0. -1.
         36    2    1    2    0    0  0.71054273576E-14  0.35527136788E-14 -0.24802937887E+04  0.24954673766E+04  0.27477290559E+03 0.  0.
         25    2    3    3    0    0  0.51657036021E+02  0.30257467940E+02 -0.12398584647E+04  0.12472330505E+04  0.12147965320E+03 0.  0.
         25    2    3    3    0    0 -0.51657036021E+02 -0.30257467940E+02 -0.12404353240E+04  0.12482343261E+04  0.12579815620E+03 0.  0.
          5    1    4    4  502    0 -0.18971164693E+02 -0.56895235074E+01 -0.80055732376E+03  0.80081608026E+03  0.47000000000E+01 0. -1.
         -5    1    4    4    0  502  0.70628200714E+02  0.35946991448E+02 -0.43930114092E+03  0.44641697027E+03  0.47000000000E+01 0. -1.
          5    1    5    5  503    0 -0.76347828877E+02 -0.56555118775E+02 -0.68029153786E+03  0.68691057563E+03  0.47000000000E+01 0.  1.
         -5    1    5    5    0  503  0.24690792856E+02  0.26297650835E+02 -0.56014378613E+03  0.56132375046E+03  0.47000000000E+01 0.  1.
<mgrwt>
<rscale>  0 0.27477291E+03</rscale>
<asrwt>0</asrwt>
<pdfrwt beam="1">  1        2 0.38275154E+00 0.27477291E+03</pdfrwt>
<pdfrwt beam="2">  1       -2 0.11671970E-02 0.27477291E+03</pdfrwt>
<totfact> 0.69326303E+03</totfact>
</mgrwt>
</event>
<event>
 9    1  0.2098759E-002  0.2762306E+03  0.7818608E-02  0.1097766E+00
          2   -1    0    0  501    0  0.00000000000E+00  0.00000000000E+00  0.85746217113E+03  0.85746217113E+03  0.00000000000E+00 0. -1.
         -2   -1    0    0    0  501 -0.00000000000E+00 -0.00000000000E+00 -0.22246847420E+02  0.22246847420E+02  0.00000000000E+00 0. -1.
         36    2    1    2    0    0 -0.14210854715E-13 -0.17763568394E-14  0.83521532371E+03  0.87970901855E+03  0.27623055653E+03 0.  0.
         25    2    3    3    0    0  0.25503598640E+02  0.50359430471E+01  0.56264628089E+03  0.57774586236E+03  0.12862212019E+03 0.  0.
         25    2    3    3    0    0 -0.25503598640E+02 -0.50359430471E+01  0.27256904282E+03  0.30196315619E+03  0.12732662852E+03 0.  0.
          5    1    4    4  502    0  0.77992021797E+02  0.66391220081E+00  0.35130346714E+03  0.35988805519E+03  0.47000000000E+01 0.  1.
         -5    1    4    4    0  502 -0.52488423156E+02  0.43720308463E+01  0.21134281375E+03  0.21785780717E+03  0.47000000000E+01 0.  1.
          5    1    5    5  503    0 -0.61710570018E+01  0.54847256456E+02  0.67032825433E+02  0.86958571578E+02  0.47000000000E+01 0. -1.
         -5    1    5    5    0  503 -0.19332541639E+02 -0.59883199504E+02  0.20553621738E+03  0.21500458461E+03  0.47000000000E+01 0. -1.
<mgrwt>
<rscale>  0 0.27623056E+03</rscale>
<asrwt>0</asrwt>
<pdfrwt beam="1">  1        2 0.13191723E+00 0.27623056E+03</pdfrwt>
<pdfrwt beam="2">  1       -2 0.34225926E-02 0.27623056E+03</pdfrwt>
<totfact> 0.11234033E+04</totfact>
</mgrwt>
</event>
<event>
 9    1  0.2098759E-002  0.2744921E+03  0.7818608E-02  0.1098736E+00
          1   -1    0    0  501    0  0.00000000000E+00  0.00000000000E+00  0.80626678611E+03  0.80626678611E+03  0.00000000000E+00 0.  1.
         -1   -1    0    0    0  501 -0.00000000000E+00 -0.00000000000E+00 -0.23362586043E+02  0.23362586043E+02  0.00000000000E+00 0.  1.
         36    2    1    2    0    0  0.14210854715E-13  0.35527136788E-14  0.78290420007E+03  0.82962937215E+03  0.27449209216E+03 0.  0.
         25    2    3    3    0    0 -0.42792858023E+02 -0.31002613694E+02  0.36543463619E+03  0.39065647816E+03  0.12758377580E+03 0.  0.
         25    2    3    3    0    0  0.42792858023E+02  0.31002613694E+02  0.41746956388E+03  0.43897289400E+03  0.12499589650E+03 0.  0.
          5    1    4    4  502    0 -0.87034648573E+02 -0.90714196077E+01  0.21180496707E+03  0.22921770172E+03  0.47000000000E+01 0. -1.
         -5    1    4    4    0  502  0.44241790550E+02 -0.21931194086E+02  0.15362966912E+03  0.16143877644E+03  0.47000000000E+01 0. -1.
          5    1    5    5  503    0 -0.27964078134E+02  0.48436962246E+02  0.25086800351E+03  0.25706997912E+03  0.47000000000E+01 0.  1.
         -5    1    5    5    0  503  0.70756936157E+02 -0.17434348552E+02  0.16660156037E+03  0.18190291488E+03  0.47000000000E+01 0.  1.
<mgrwt>
<rscale>  0 0.27449209E+03</rscale>
<asrwt>0</asrwt>
<pdfrwt beam="1">  1        1 0.12404102E+00 0.27449209E+03</pdfrwt>
<pdfrwt beam="2">  1       -1 0.35942446E-02 0.27449209E+03</pdfrwt>
<totfact> 0.65533556E+03</totfact>
</mgrwt>
</event>
<event>
 9    1  0.2098759E-002  0.2750660E+03  0.7818608E-02  0.1098415E+00
          1   -1    0    0  501    0  0.00000000000E+00  0.00000000000E+00  0.12028274907E+03  0.12028274907E+03  0.00000000000E+00 0. -1.
         -1   -1    0    0    0  501 -0.00000000000E+00 -0.00000000000E+00 -0.15725721032E+03  0.15725721032E+03  0.00000000000E+00 0. -1.
         36    2    1    2    0    0 -0.71054273576E-14 -0.35527136788E-14 -0.36974461254E+02  0.27753995939E+03  0.27506602530E+03 0.  0.
         25    2    3    3    0    0  0.11716237279E+02  0.27264421140E+02 -0.54362042917E+02  0.14092660094E+03  0.12658774137E+03 0.  0.
         25    2    3    3    0    0 -0.11716237279E+02 -0.27264421140E+02  0.17387581663E+02  0.13661335845E+03  0.13221294504E+03 0.  0.
          5    1    4    4  502    0 -0.55928204279E+02  0.10735734805E+02 -0.94164191839E+01  0.57913547517E+02  0.47000000000E+01 0. -1.
         -5    1    4    4    0  502  0.67644441558E+02  0.16528686334E+02 -0.44945623733E+02  0.83013053422E+02  0.47000000000E+01 0. -1.
          5    1    5    5  503    0  0.37306572075E+02  0.28839937174E+02  0.36193121380E+02  0.59628469136E+02  0.47000000000E+01 0.  1.
         -5    1    5    5    0  503 -0.49022809355E+02 -0.56104358314E+02 -0.18805539717E+02  0.76984889315E+02  0.47000000000E+01 0.  1.
<mgrwt>
<rscale>  0 0.27506603E+03</rscale>
<asrwt>0</asrwt>
<pdfrwt beam="1">  1        1 0.18505038E-01 0.27506603E+03</pdfrwt>
<pdfrwt beam="2">  1       -1 0.24193417E-01 0.27506603E+03</pdfrwt>
<totfact> 0.41325452E+03</totfact>
</mgrwt>
</event>
<event>
 9    1  0.2098759E-002  0.2732716E+03  0.7818608E-02  0.1099422E+00
         -2   -1    0    0    0  501 -0.00000000000E+00  0.00000000000E+00  0.28435801109E+02  0.28435801109E+02  0.00000000000E+00 0. -1.
          2   -1    0    0  501    0  0.00000000000E+00 -0.00000000000E+00 -0.65654377720E+03  0.65654377720E+03  0.00000000000E+00 0. -1.
         36    2    1    2    0    0 -0.71054273576E-14  0.00000000000E+00 -0.62810797609E+03  0.68497957831E+03  0.27327164703E+03 0.  0.
         25    2    3    3    0    0 -0.33129607508E+02 -0.28059701083E+02 -0.35085460428E+03  0.37451728371E+03  0.12360956571E+03 0.  0.
         25    2    3    3    0    0  0.33129607508E+02  0.28059701083E+02 -0.27725337181E+03  0.31046229459E+03  0.13278737315E+03 0.  0.
          5    1    4    4  502    0  0.44711154444E+02  0.11310369464E+01 -0.88580459078E+02  0.99342610731E+02  0.47000000000E+01 0.  1.
         -5    1    4    4    0  502 -0.77840761952E+02 -0.29190738030E+02 -0.26227414521E+03  0.27517467298E+03  0.47000000000E+01 0.  1.
          5    1    5    5  503    0  0.87381708828E+01  0.21586060458E+02 -0.28313279441E+03  0.28412775807E+03  0.47000000000E+01 0.  1.
         -5    1    5    5    0  503  0.24391436625E+02  0.64736406248E+01  0.58794226050E+01  0.26334536521E+02  0.47000000000E+01 0.  1.
<mgrwt>
<rscale>  0 0.27327165E+03</rscale>
<asrwt>0</asrwt>
<pdfrwt beam="1">  1        2 0.10100673E+00 0.27327165E+03</pdfrwt>
<pdfrwt beam="2">  1       -2 0.43747389E-02 0.27327165E+03</pdfrwt>
<totfact> 0.10828892E+04</totfact>
</mgrwt>
</event>
<event>
 9    1  0.2098759E-002  0.2658001E+03  0.7818608E-02  0.1103708E+00
          4   -1    0    0  501    0  0.00000000000E+00  0.00000000000E+00  0.27091688201E+03  0.27091688201E+03  0.00000000000E+00 0.  1.
         -4   -1    0    0    0  501 -0.00000000000E+00 -0.00000000000E+00 -0.65195001112E+02  0.65195001112E+02  0.00000000000E+00 0.  1.
         36    2    1    2    0    0  0.71054273576E-14 -0.35527136788E-14  0.20572188090E+03  0.33611188313E+03  0.26580012358E+03 0.  0.
         25    2    3    3    0    0  0.43634496158E+02  0.21406019859E+02  0.11267723940E+03  0.17355861124E+03  0.12273648322E+03 0.  0.
         25    2    3    3    0    0 -0.43634496158E+02 -0.21406019859E+02  0.93044641503E+02  0.16255327189E+03  0.12411314978E+03 0.  0.
          5    1    4    4  502    0  0.63655296388E+02  0.43925766685E+02  0.11939256377E+03  0.14233110701E+03  0.47000000000E+01 0.  1.
         -5    1    4    4    0  502 -0.20020800230E+02 -0.22519746825E+02 -0.67153243746E+01  0.31227504229E+02  0.47000000000E+01 0.  1.
          5    1    5    5  503    0 -0.57435977484E+02 -0.59239403226E+01 -0.87253391871E+01  0.58585033263E+02  0.47000000000E+01 0. -1.
         -5    1    5    5    0  503  0.13801481326E+02 -0.15482079537E+02  0.10176998069E+03  0.10396823863E+03  0.47000000000E+01 0. -1.
<mgrwt>
<rscale>  0 0.26580012E+03</rscale>
<asrwt>0</asrwt>
<pdfrwt beam="1">  1        4 0.41679520E-01 0.26580012E+03</pdfrwt>
<pdfrwt beam="2">  1       -4 0.10030000E-01 0.26580012E+03</pdfrwt>
<totfact> 0.78973737E+02</totfact>
</mgrwt>
</event>
<event>
 9    1  0.2098759E-002  0.2744378E+03  0.7818608E-02  0.1098766E+00
          2   -1    0    0  501    0  0.00000000000E+00  0.00000000000E+00  0.19051910145E+04  0.19051910145E+04  0.00000000000E+00 0.  1.
         -2   -1    0    0    0  501 -0.00000000000E+00 -0.00000000000E+00 -0.98830142647E+01  0.98830142647E+01  0.00000000000E+00 0.  1.
         36    2    1    2    0    0  0.00000000000E+00  0.71054273576E-14  0.18953080002E+04  0.19150740287E+04  0.27443782518E+03 0.  0.
         25    2    3    3    0    0  0.38267190975E+02 -0.40645778701E+02  0.82898362326E+03  0.84008611592E+03  0.12415465076E+03 0.  0.
         25    2    3    3    0    0 -0.38267190975E+02  0.40645778701E+02  0.10663243769E+04  0.10749879128E+04  0.12423718681E+03 0.  0.
          5    1    4    4  502    0  0.48304628982E+02 -0.77965343996E+02  0.67677873362E+03  0.68298131477E+03  0.47000000000E+01 0.  1.
         -5    1    4    4    0  502 -0.10037438007E+02  0.37319565295E+02  0.15220488963E+03  0.15710480115E+03  0.47000000000E+01 0.  1.
          5    1    5    5  503    0 -0.41956355918E+02  0.70088432844E+02  0.41601867786E+03  0.42398862550E+03  0.47000000000E+01 0. -1.
         -5    1    5    5    0  503  0.36891649424E+01 -0.29442654143E+02  0.65030569907E+03  0.65099928730E+03  0.47000000000E+01 0. -1.
<mgrwt>
<rscale>  0 0.27443783E+03</rscale>
<asrwt>0</asrwt>
<pdfrwt beam="1">  1        2 0.29310602E+00 0.27443783E+03</pdfrwt>
<pdfrwt beam="2">  1       -2 0.15204652E-02 0.27443783E+03</pdfrwt>
<totfact> 0.96379524E+03</totfact>
</mgrwt>
</event>
<event>
 9    1  0.2098759E-002  0.2804963E+03  0.7818608E-02  0.1095418E+00
          2   -1    0    0  501    0  0.00000000000E+00  0.00000000000E+00  0.14440148034E+03  0.14440148034E+03  0.00000000000E+00 0. -1.
         -2   -1    0    0    0  501 -0.00000000000E+00 -0.00000000000E+00 -0.13621431358E+03  0.13621431358E+03  0.00000000000E+00 0. -1.
         36    2    1    2    0    0  0.71054273576E-14  0.00000000000E+00  0.81871667554E+01  0.28061579392E+03  0.28049633526E+03 0.  0.
         25    2    3    3    0    0  0.59244500788E+02  0.18744416158E+02  0.18842162646E+00  0.14015009528E+03  0.12562145396E+03 0.  0.
         25    2    3    3    0    0 -0.59244500788E+02 -0.18744416158E+02  0.79987451289E+01  0.14046569864E+03  0.12571940407E+03 0.  0.
          5    1    4    4  502    0  0.21884480319E+02  0.36525764230E+02 -0.55816345217E+02  0.70360616290E+02  0.47000000000E+01 0. -1.
         -5    1    4    4    0  502  0.37360020469E+02 -0.17781348072E+02  0.56004766843E+02  0.69789478991E+02  0.47000000000E+01 0. -1.
          5    1    5    5  503    0  0.33260076190E+02 -0.30810929314E+02 -0.61482409374E+01  0.45993878940E+02  0.47000000000E+01 0.  1.
         -5    1    5    5    0  503 -0.92504576978E+02  0.12066513156E+02  0.14146986066E+02  0.94471819695E+02  0.47000000000E+01 0.  1.
<mgrwt>
<rscale>  0 0.28049634E+03</rscale>
<asrwt>0</asrwt>
<pdfrwt beam="1">  1        2 0.22215612E-01 0.28049634E+03</pdfrwt>
<pdfrwt beam="2">  1       -2 0.20956048E-01 0.28049634E+03</pdfrwt>
<totfact> 0.47432737E+03</totfact>
</mgrwt>
</event>
<event>
 9    1  0.2098759E-002  0.2755284E+03  0.7818608E-02  0.1098157E+00
         -1   -1    0    0    0  501 -0.00000000000E+00  0.00000000000E+00  0.12910974463E+02  0.12910974463E+02  0.00000000000E+00 0.  1.
          1   -1    0    0  501    0  0.00000000000E+00 -0.00000000000E+00 -0.14699876517E+04  0.14699876517E+04  0.00000000000E+00 0.  1.
         36    2    1    2    0    0  0.00000000000E+00  0.00000000000E+00 -0.14570766772E+04  0.14828986261E+04  0.27552838715E+03 0.  0.
         25    2    3    3    0    0 -0.32432125845E+01  0.54364062267E+02 -0.75163212105E+03  0.76385414790E+03  0.12472507442E+03 0.  0.
         25    2    3    3    0    0  0.32432125845E+01 -0.54364062267E+02 -0.70544455618E+03  0.71904447824E+03  0.12808969576E+03 0.  0.
          5    1    4    4  502    0  0.59188550401E+02  0.13789407625E+02 -0.37193498605E+03  0.37689674462E+03  0.47000000000E+01 0.  1.
         -5    1    4    4    0  502 -0.62431762986E+02  0.40574654642E+02 -0.37969713500E+03  0.38695740328E+03  0.47000000000E+01 0.  1.
          5    1    5    5  503    0 -0.31124336646E+02 -0.41858543066E+02 -0.65208165921E+03  0.65418150558E+03  0.47000000000E+01 0.  1.
         -5    1    5    5    0  503  0.34367549230E+02 -0.12505519201E+02 -0.53362896964E+02  0.64862972665E+02  0.47000000000E+01 0.  1.
<mgrwt>
<rscale>  0 0.27552839E+03</rscale>
<asrwt>0</asrwt>
<pdfrwt beam="1">  1        1 0.22615203E+00 0.27552839E+03</pdfrwt>
<pdfrwt beam="2">  1       -1 0.19863031E-02 0.27552839E+03</pdfrwt>
<totfact> 0.51898548E+03</totfact>
</mgrwt>
</event>
<event>
 9    1  0.2098759E-002  0.2752124E+03  0.7818608E-02  0.1098333E+00
         -1   -1    0    0    0  501 -0.00000000000E+00  0.00000000000E+00  0.22079052292E+03  0.22079052292E+03  0.00000000000E+00 0. -1.
          1   -1    0    0  501    0  0.00000000000E+00 -0.00000000000E+00 -0.85762160908E+02  0.85762160908E+02  0.00000000000E+00 0. -1.
         36    2    1    2    0    0  0.00000000000E+00  0.00000000000E+00  0.13502836201E+03  0.30655268382E+03  0.27521244415E+03 0.  0.
         25    2    3    3    0    0  0.61427622826E+02 -0.87879695206E+01  0.47714273632E+02  0.14209275618E+03  0.11858801877E+03 0.  0.
         25    2    3    3    0    0 -0.61427622826E+02  0.87879695206E+01  0.87314088375E+02  0.16445992764E+03  0.12479077096E+03 0.  0.
          5    1    4    4  502    0 -0.11496504438E+02 -0.32380054099E+02  0.54933565271E+02  0.64964791319E+02  0.47000000000E+01 0.  1.
         -5    1    4    4    0  502  0.72924127264E+02  0.23592084578E+02 -0.72192916385E+01  0.77127964862E+02  0.47000000000E+01 0.  1.
          5    1    5    5  503    0 -0.53404242241E+02 -0.36731405934E+02  0.97235301148E+02  0.11695299509E+03  0.47000000000E+01 0.  1.
         -5    1    5    5    0  503 -0.80233805846E+01  0.45519375454E+02 -0.99212127727E+01  0.47506932553E+02  0.47000000000E+01 0.  1.
<mgrwt>
<rscale>  0 0.27521244E+03</rscale>
<asrwt>0</asrwt>
<pdfrwt beam="1">  1        1 0.13194179E-01 0.27521244E+03</pdfrwt>
<pdfrwt beam="2">  1       -1 0.33967773E-01 0.27521244E+03</pdfrwt>
<totfact> 0.36236791E+03</totfact>
</mgrwt>
</event>
<event>
 9    1  0.2098759E-002  0.2749667E+03  0.7818608E-02  0.1098470E+00
          2   -1    0    0  501    0  0.00000000000E+00  0.00000000000E+00  0.18951562175E+04  0.18951562175E+04  0.00000000000E+00 0.  1.
         -2   -1    0    0    0  501 -0.00000000000E+00 -0.00000000000E+00 -0.99736729119E+01  0.99736729119E+01  0.00000000000E+00 0.  1.
         36    2    1    2    0    0  0.71054273576E-14 -0.71054273576E-14  0.18851825445E+04  0.19051298904E+04  0.27496667602E+03 0.  0.
         25    2    3    3    0    0 -0.81929678032E+01  0.47522891745E+02  0.10017971280E+04  0.10108948581E+04  0.12643329673E+03 0.  0.
         25    2    3    3    0    0  0.81929678032E+01 -0.47522891745E+02  0.88338541654E+03  0.89423503226E+03  0.13023420746E+03 0.  0.
          5    1    4    4  502    0 -0.21747971872E+02 -0.29051623620E+01  0.85004387673E+03  0.85033998884E+03  0.47000000000E+01 0. -1.
         -5    1    4    4    0  502  0.13555004069E+02  0.50428054107E+02  0.15175325128E+03  0.16055486928E+03  0.47000000000E+01 0. -1.
          5    1    5    5  503    0  0.66206688950E+02 -0.44911735615E+02  0.54745383484E+03  0.55328851509E+03  0.47000000000E+01 0.  1.
         -5    1    5    5    0  503 -0.58013721147E+02 -0.26111561304E+01  0.33593158170E+03  0.34094651716E+03  0.47000000000E+01 0.  1.
<mgrwt>
<rscale>  0 0.27496668E+03</rscale>
<asrwt>0</asrwt>
<pdfrwt beam="1">  1        2 0.29156221E+00 0.27496668E+03</pdfrwt>
<pdfrwt beam="2">  1       -2 0.15344127E-02 0.27496668E+03</pdfrwt>
<totfact> 0.96262971E+03</totfact>
</mgrwt>
</event>
<event>
 9    1  0.2098759E-002  0.2731091E+03  0.7818608E-02  0.1099513E+00
         -1   -1    0    0    0  501 -0.00000000000E+00  0.00000000000E+00  0.14232646866E+03  0.14232646866E+03  0.00000000000E+00 0. -1.
          1   -1    0    0  501    0  0.00000000000E+00 -0.00000000000E+00 -0.13101670704E+03  0.13101670704E+03  0.00000000000E+00 0. -1.
         36    2    1    2    0    0  0.00000000000E+00  0.00000000000E+00  0.11309761622E+02  0.27334317571E+03  0.27310910091E+03 0.  0.
         25    2    3    3    0    0 -0.11871250326E+02  0.26998730946E+02  0.49192745775E+02  0.13678453561E+03  0.12417819812E+03 0.  0.
         25    2    3    3    0    0  0.11871250326E+02 -0.26998730946E+02 -0.37882984154E+02  0.13655864009E+03  0.12784085278E+03 0.  0.
          5    1    4    4  502    0 -0.64126815445E+02 -0.38690702848E+01  0.12223646618E+02  0.65564668082E+02  0.47000000000E+01 0. -1.
         -5    1    4    4    0  502  0.52255565120E+02  0.30867801230E+02  0.36969099157E+02  0.71219867532E+02  0.47000000000E+01 0. -1.
          5    1    5    5  503    0  0.45928034150E+02 -0.46128150532E+02 -0.62324070255E+02  0.90241732727E+02  0.47000000000E+01 0. -1.
         -5    1    5    5    0  503 -0.34056783824E+02  0.19129419587E+02  0.24441086101E+02  0.46316907367E+02  0.47000000000E+01 0. -1.
<mgrwt>
<rscale>  0 0.27310910E+03</rscale>
<asrwt>0</asrwt>
<pdfrwt beam="1">  1        1 0.20156416E-01 0.27310910E+03</pdfrwt>
<pdfrwt beam="2">  1       -1 0.21896380E-01 0.27310910E+03</pdfrwt>
<totfact> 0.43612024E+03</totfact>
</mgrwt>
</event>
<event>
 9    1  0.2098759E-002  0.2744816E+03  0.7818608E-02  0.1098742E+00
         -2   -1    0    0    0  501 -0.00000000000E+00  0.00000000000E+00  0.59873600111E+01  0.59873600111E+01  0.00000000000E+00 0.  1.
          2   -1    0    0  501    0  0.00000000000E+00 -0.00000000000E+00 -0.31457993448E+04  0.31457993448E+04  0.00000000000E+00 0.  1.
         36    2    1    2    0    0  0.00000000000E+00 -0.17763568394E-14 -0.31398119848E+04  0.31517867048E+04  0.27448157097E+03 0.  0.
         25    2    3    3    0    0  0.47422081471E+02  0.13855455351E+02 -0.11435520041E+04  0.11509946475E+04  0.12098208557E+03 0.  0.
         25    2    3    3    0    0 -0.47422081471E+02 -0.13855455351E+02 -0.19962599807E+04  0.20007920573E+04  0.12519632049E+03 0.  0.
          5    1    4    4  502    0 -0.38209994663E+02 -0.11708426553E+02 -0.42207671002E+03  0.42399048348E+03  0.47000000000E+01 0.  1.
         -5    1    4    4    0  502  0.85632076134E+02  0.25563881903E+02 -0.72147529412E+03  0.72700416405E+03  0.47000000000E+01 0.  1.
          5    1    5    5  503    0  0.76327895391E+01 -0.43289968879E+01 -0.11376159866E+02  0.15116438188E+02  0.47000000000E+01 0. -1.
         -5    1    5    5    0  503 -0.55054871010E+02 -0.95264584627E+01 -0.19848838208E+04  0.19856756191E+04  0.47000000000E+01 0. -1.
<mgrwt>
<rscale>  0 0.27448157E+03</rscale>
<asrwt>0</asrwt>
<pdfrwt beam="1">  1        2 0.48396915E+00 0.27448157E+03</pdfrwt>
<pdfrwt beam="2">  1       -2 0.92113226E-03 0.27448157E+03</pdfrwt>
<totfact> 0.40904030E+03</totfact>
</mgrwt>
</event>
<event>
 9    1  0.2098759E-002  0.2740058E+03  0.7818608E-02  0.1099009E+00
          3   -1    0    0  501    0  0.00000000000E+00  0.00000000000E+00  0.36993791898E+03  0.36993791898E+03  0.00000000000E+00 0. -1.
         -3   -1    0    0    0  501 -0.00000000000E+00 -0.00000000000E+00 -0.50737683338E+02  0.50737683338E+02  0.00000000000E+00 0. -1.
         36    2    1    2    0    0 -0.71054273576E-14 -0.35527136788E-14  0.31920023564E+03  0.42067560232E+03  0.27400578817E+03 0.  0.
         25    2    3    3    0    0  0.33897757912E+02 -0.53810469154E-01  0.23682616976E+03  0.26950057309E+03  0.12407603849E+03 0.  0.
         25    2    3    3    0    0 -0.33897757912E+02  0.53810469154E-01  0.82374065886E+02  0.15117502923E+03  0.12214475775E+03 0.  0.
          5    1    4    4  502    0 -0.21442949731E+02 -0.24042379259E+02  0.19060547006E+03  0.19336590007E+03  0.47000000000E+01 0. -1.
         -5    1    4    4    0  502  0.55340707643E+02  0.23988568790E+02  0.46220699696E+02  0.76134673017E+02  0.47000000000E+01 0. -1.
          5    1    5    5  503    0  0.15418109879E+02 -0.52209478473E+02  0.32441794370E+02  0.63546107486E+02  0.47000000000E+01 0.  1.
         -5    1    5    5    0  503 -0.49315867791E+02  0.52263288942E+02  0.49932271516E+02  0.87628921743E+02  0.47000000000E+01 0.  1.
<mgrwt>
<rscale>  0 0.27400579E+03</rscale>
<asrwt>0</asrwt>
<pdfrwt beam="1">  1        3 0.56913524E-01 0.27400579E+03</pdfrwt>
<pdfrwt beam="2">  1       -3 0.78057977E-02 0.27400579E+03</pdfrwt>
<totfact> 0.86685437E+02</totfact>
</mgrwt>
</event>
<event>
 9    1  0.2098759E-002  0.2775889E+03  0.7818608E-02  0.1097013E+00
          3   -1    0    0  501    0  0.00000000000E+00  0.00000000000E+00  0.20364303314E+03  0.20364303314E+03  0.00000000000E+00 0.  1.
         -3   -1    0    0    0  501 -0.00000000000E+00 -0.00000000000E+00 -0.94596411710E+02  0.94596411710E+02  0.00000000000E+00 0.  1.
         36    2    1    2    0    0  0.14210854715E-13  0.00000000000E+00  0.10904662143E+03  0.29823944485E+03  0.27758890615E+03 0.  0.
         25    2    3    3    0    0 -0.38271184283E+02 -0.69257599971E+02  0.93551777187E+02  0.17480941934E+03  0.12467998787E+03 0.  0.
         25    2    3    3    0    0  0.38271184283E+02  0.69257599971E+02  0.15494844244E+02  0.12343002551E+03  0.93453637164E+02 0.  0.
          5    1    4    4  502    0  0.21476757688E+02 -0.82536277666E+02  0.44995640948E+02  0.96541110186E+02  0.47000000000E+01 0. -1.
         -5    1    4    4    0  502 -0.59747941972E+02  0.13278677695E+02  0.48556136239E+02  0.78268309153E+02  0.47000000000E+01 0. -1.
          5    1    5    5  503    0 -0.29183553296E+02  0.69050703727E+01  0.62085364656E+01  0.30983797457E+02  0.47000000000E+01 0. -1.
         -5    1    5    5    0  503  0.67454737579E+02  0.62352529599E+02  0.92863077780E+01  0.92446228054E+02  0.47000000000E+01 0. -1.
<mgrwt>
<rscale>  0 0.27758891E+03</rscale>
<asrwt>0</asrwt>
<pdfrwt beam="1">  1        3 0.31329697E-01 0.27758891E+03</pdfrwt>
<pdfrwt beam="2">  1       -3 0.14553294E-01 0.27758891E+03</pdfrwt>
<totfact> 0.98552060E+02</totfact>
</mgrwt>
</event>
<event>
 9    1  0.2098759E-002  0.2753611E+03  0.7818608E-02  0.1098250E+00
         -2   -1    0    0    0  501 -0.00000000000E+00  0.00000000000E+00  0.64383303391E+02  0.64383303391E+02  0.00000000000E+00 0.  1.
          2   -1    0    0  501    0  0.00000000000E+00 -0.00000000000E+00 -0.29442315358E+03  0.29442315358E+03  0.00000000000E+00 0.  1.
         36    2    1    2    0    0  0.71054273576E-14  0.00000000000E+00 -0.23003985019E+03  0.35880645698E+03  0.27536110998E+03 0.  0.
         25    2    3    3    0    0  0.38617561802E+02 -0.17342227640E+02 -0.16080876192E+03  0.20902434106E+03  0.12664773313E+03 0.  0.
         25    2    3    3    0    0 -0.38617561802E+02  0.17342227640E+02 -0.69231088277E+02  0.14978211592E+03  0.12589547143E+03 0.  0.
          5    1    4    4  502    0 -0.26717563056E+02  0.24517095644E+02 -0.11058875236E+03  0.11647694322E+03  0.47000000000E+01 0.  1.
         -5    1    4    4    0  502  0.65335124858E+02 -0.41859323283E+02 -0.50220009557E+02  0.92547397834E+02  0.47000000000E+01 0.  1.
          5    1    5    5  503    0 -0.49854163535E+01 -0.79418209133E+01  0.35393942948E+02  0.36915418094E+02  0.47000000000E+01 0. -1.
         -5    1    5    5    0  503 -0.33632145449E+02  0.25284048553E+02 -0.10462503122E+03  0.11286669782E+03  0.47000000000E+01 0. -1.
<mgrwt>
<rscale>  0 0.27536111E+03</rscale>
<asrwt>0</asrwt>
<pdfrwt beam="1">  1        2 0.45295871E-01 0.27536111E+03</pdfrwt>
<pdfrwt beam="2">  1       -2 0.99051234E-02 0.27536111E+03</pdfrwt>
<totfact> 0.74631495E+03</totfact>
</mgrwt>
</event>
<event>
 9    1  0.2098759E-002  0.2751809E+03  0.7818608E-02  0.1098351E+00
          2   -1    0    0  501    0  0.00000000000E+00  0.00000000000E+00  0.85453361267E+03  0.85453361267E+03  0.00000000000E+00 0. -1.
         -2   -1    0    0    0  501 -0.00000000000E+00 -0.00000000000E+00 -0.22153756306E+02  0.22153756306E+02  0.00000000000E+00 0. -1.
         36    2    1    2    0    0  0.00000000000E+00 -0.71054273576E-14  0.83237985636E+03  0.87668736897E+03  0.27518088168E+03 0.  0.
         25    2    3    3    0    0  0.41670263851E+02 -0.34619987778E+02  0.49084989213E+03  0.50915397927E+03  0.12397259198E+03 0.  0.
         25    2    3    3    0    0 -0.41670263851E+02  0.34619987778E+02  0.34152996423E+03  0.36753338970E+03  0.12451153213E+03 0.  0.
          5    1    4    4  502    0  0.38729725129E+02 -0.52550062230E+02  0.48514296324E+03  0.48953782840E+03  0.47000000000E+01 0.  1.
         -5    1    4    4    0  502  0.29405387222E+01  0.17930074451E+02  0.57069288875E+01  0.19616150874E+02  0.47000000000E+01 0.  1.
          5    1    5    5  503    0  0.10214942102E+02 -0.38828242109E+02  0.15818548181E+03  0.16326883990E+03  0.47000000000E+01 0.  1.
         -5    1    5    5    0  503 -0.51885205953E+02  0.73448229887E+02  0.18334448242E+03  0.20426454980E+03  0.47000000000E+01 0.  1.
<mgrwt>
<rscale>  0 0.27518088E+03</rscale>
<asrwt>0</asrwt>
<pdfrwt beam="1">  1        2 0.13146668E+00 0.27518088E+03</pdfrwt>
<pdfrwt beam="2">  1       -2 0.34082709E-02 0.27518088E+03</pdfrwt>
<totfact> 0.11353964E+04</totfact>
</mgrwt>
</event>
<event>
 9    1  0.2098759E-002  0.2746776E+03  0.7818608E-02  0.1098632E+00
          1   -1    0    0  501    0  0.00000000000E+00  0.00000000000E+00  0.45070112240E+03  0.45070112240E+03  0.00000000000E+00 0.  1.
         -1   -1    0    0    0  501 -0.00000000000E+00 -0.00000000000E+00 -0.41850245058E+02  0.41850245058E+02  0.00000000000E+00 0.  1.
         36    2    1    2    0    0 -0.35527136788E-14  0.00000000000E+00  0.40885087734E+03  0.49255136745E+03  0.27467764685E+03 0.  0.
         25    2    3    3    0    0 -0.23355518610E+02  0.57608115342E+02  0.20144054768E+03  0.24474678208E+03  0.12433228818E+03 0.  0.
         25    2    3    3    0    0  0.23355518610E+02 -0.57608115342E+02  0.20741032966E+03  0.24780458538E+03  0.12051511309E+03 0.  0.
          5    1    4    4  502    0  0.60150570557E+01 -0.36124759311E+01 -0.15351536851E+02  0.17521146579E+02  0.47000000000E+01 0.  1.
         -5    1    4    4    0  502 -0.29370575666E+02  0.61220591274E+02  0.21679208453E+03  0.22722563550E+03  0.47000000000E+01 0.  1.
          5    1    5    5  503    0  0.66435932467E+02 -0.60874730044E+02  0.11950386540E+03  0.14974221091E+03  0.47000000000E+01 0. -1.
         -5    1    5    5    0  503 -0.43080413857E+02  0.32666147015E+01  0.87906464254E+02  0.98062374473E+02  0.47000000000E+01 0. -1.
<mgrwt>
<rscale>  0 0.27467765E+03</rscale>
<asrwt>0</asrwt>
<pdfrwt beam="1">  1        1 0.69338631E-01 0.27467765E+03</pdfrwt>
<pdfrwt beam="2">  1       -1 0.64384996E-02 0.27467765E+03</pdfrwt>
<totfact> 0.61892872E+03</totfact>
</mgrwt>
</event>
<event>
 9    1  0.2098759E-002  0.2745216E+03  0.7818608E-02  0.1098719E+00
          2   -1    0    0  501    0  0.00000000000E+00  0.00000000000E+00  0.41570323834E+03  0.41570323834E+03  0.00000000000E+00 0.  1.
         -2   -1    0    0    0  501 -0.00000000000E+00 -0.00000000000E+00 -0.45322067800E+02  0.45322067800E+02  0.00000000000E+00 0.  1.
         36    2    1    2    0    0  0.00000000000E+00  0.71054273576E-14  0.37038117054E+03  0.46102530614E+03  0.27452162285E+03 0.  0.
         25    2    3    3    0    0 -0.15944465882E+02 -0.57430181008E+02  0.16861140806E+03  0.21772200947E+03  0.12417976807E+03 0.  0.
         25    2    3    3    0    0  0.15944465882E+02  0.57430181008E+02  0.20176976248E+03  0.24330329667E+03  0.12220067690E+03 0.  0.
          5    1    4    4  502    0 -0.12692245982E+02 -0.62680030339E+02  0.17579250749E+02  0.66490596089E+02  0.47000000000E+01 0. -1.
         -5    1    4    4    0  502 -0.32522199004E+01  0.52498493314E+01  0.15103215731E+03  0.15123141338E+03  0.47000000000E+01 0. -1.
          5    1    5    5  503    0 -0.15103268637E+02  0.35331374313E+02  0.20121132564E+03  0.20490120131E+03  0.47000000000E+01 0.  1.
         -5    1    5    5    0  503  0.31047734519E+02  0.22098806695E+02  0.55843684603E+00  0.38402095357E+02  0.47000000000E+01 0.  1.
<mgrwt>
<rscale>  0 0.27452162E+03</rscale>
<asrwt>0</asrwt>
<pdfrwt beam="1">  1        2 0.63954342E-01 0.27452162E+03</pdfrwt>
<pdfrwt beam="2">  1       -2 0.69726261E-02 0.27452162E+03</pdfrwt>
<totfact> 0.89116062E+03</totfact>
</mgrwt>
</event>
<event>
 9    1  0.2098759E-002  0.2746878E+03  0.7818608E-02  0.1098626E+00
         -2   -1    0    0    0  501 -0.00000000000E+00  0.00000000000E+00  0.42866455127E+02  0.42866455127E+02  0.00000000000E+00 0. -1.
          2   -1    0    0  501    0  0.00000000000E+00 -0.00000000000E+00 -0.44004927333E+03  0.44004927333E+03  0.00000000000E+00 0. -1.
         36    2    1    2    0    0  0.14210854715E-13  0.00000000000E+00 -0.39718281820E+03  0.48291572845E+03  0.27468784049E+03 0.  0.
         25    2    3    3    0    0  0.50377549435E+02  0.44916911695E+02 -0.21225283698E+03  0.25723676988E+03  0.12870144727E+03 0.  0.
         25    2    3    3    0    0 -0.50377549435E+02 -0.44916911695E+02 -0.18492998122E+03  0.22567895857E+03  0.11034703415E+03 0.  0.
          5    1    4    4  502    0 -0.27740468362E+02  0.61606923295E+01 -0.11975413344E+01  0.28827275629E+02  0.47000000000E+01 0. -1.
         -5    1    4    4    0  502  0.78118017797E+02  0.38756219366E+02 -0.21105529565E+03  0.22840949425E+03  0.47000000000E+01 0. -1.
          5    1    5    5  503    0 -0.29244301618E+02 -0.79797019502E+02 -0.99801191737E+02  0.13116844655E+03  0.47000000000E+01 0. -1.
         -5    1    5    5    0  503 -0.21133247816E+02  0.34880107806E+02 -0.85128789482E+02  0.94510512021E+02  0.47000000000E+01 0. -1.
<mgrwt>
<rscale>  0 0.27468784E+03</rscale>
<asrwt>0</asrwt>
<pdfrwt beam="1">  1        2 0.67699890E-01 0.27468784E+03</pdfrwt>
<pdfrwt beam="2">  1       -2 0.65948391E-02 0.27468784E+03</pdfrwt>
<totfact> 0.91265341E+03</totfact>
</mgrwt>
</event>
<event>
 9    1  0.2098759E-002  0.2748204E+03  0.7818608E-02  0.1098552E+00
          2   -1    0    0  501    0  0.00000000000E+00  0.00000000000E+00  0.11411192436E+04  0.11411192436E+04  0.00000000000E+00 0.  1.
         -2   -1    0    0    0  501 -0.00000000000E+00 -0.00000000000E+00 -0.16546530053E+02  0.16546530053E+02  0.00000000000E+00 0.  1.
         36    2    1    2    0    0 -0.53290705182E-14 -0.71054273576E-14  0.11245727136E+04  0.11576657737E+04  0.27482040578E+03 0.  0.
         25    2    3    3    0    0  0.88111571108E+01 -0.46856775433E+02  0.44355259861E+03  0.46388370325E+03  0.12718485962E+03 0.  0.
         25    2    3    3    0    0 -0.88111571108E+01  0.46856775433E+02  0.68102011495E+03  0.69378207041E+03  0.12357981375E+03 0.  0.
          5    1    4    4  502    0  0.36548575862E+01  0.34286190367E+02  0.26928853032E+03  0.27152772123E+03  0.47000000000E+01 0.  1.
         -5    1    4    4    0  502  0.51562995246E+01 -0.81142965800E+02  0.17426406829E+03  0.19235598202E+03  0.47000000000E+01 0.  1.
          5    1    5    5  503    0 -0.53377141400E+02 -0.72134101066E+01  0.18252076080E+03  0.19036037043E+03  0.47000000000E+01 0. -1.
         -5    1    5    5    0  503  0.44565984289E+02  0.54070185540E+02  0.49849935415E+03  0.50342169998E+03  0.47000000000E+01 0. -1.
<mgrwt>
<rscale>  0 0.27482041E+03</rscale>
<asrwt>0</asrwt>
<pdfrwt beam="1">  1        2 0.17555674E+00 0.27482041E+03</pdfrwt>
<pdfrwt beam="2">  1       -2 0.25456209E-02 0.27482041E+03</pdfrwt>
<totfact> 0.11670927E+04</totfact>
</mgrwt>
</event>
<event>
 9    1  0.2098759E-002  0.2740815E+03  0.7818608E-02  0.1098966E+00
         -2   -1    0    0    0  501 -0.00000000000E+00  0.00000000000E+00  0.25843099131E+02  0.25843099131E+02  0.00000000000E+00 0. -1.
          2   -1    0    0  501    0  0.00000000000E+00 -0.00000000000E+00 -0.72669968613E+03  0.72669968613E+03  0.00000000000E+00 0. -1.
         36    2    1    2    0    0  0.71054273576E-14 -0.17763568394E-14 -0.70085658700E+03  0.75254278526E+03  0.27408153551E+03 0.  0.
         25    2    3    3    0    0 -0.22741437879E+02  0.49040011052E+01 -0.49120186012E+03  0.50711136315E+03  0.12386058705E+03 0.  0.
         25    2    3    3    0    0  0.22741437879E+02 -0.49040011052E+01 -0.20965472687E+03  0.24543142211E+03  0.12546017788E+03 0.  0.
          5    1    4    4  502    0 -0.69101702001E+02  0.97826256891E+01 -0.19370517215E+03  0.20594787861E+03  0.47000000000E+01 0. -1.
         -5    1    4    4    0  502  0.46360264122E+02 -0.48786245839E+01 -0.29749668797E+03  0.30116348454E+03  0.47000000000E+01 0. -1.
          5    1    5    5  503    0 -0.51188436339E+02 -0.13158704284E+02 -0.87120622290E+02  0.10200735435E+03  0.47000000000E+01 0.  1.
         -5    1    5    5    0  503  0.73929874218E+02  0.82547031786E+01 -0.12253410458E+03  0.14342406776E+03  0.47000000000E+01 0.  1.
<mgrwt>
<rscale>  0 0.27408154E+03</rscale>
<asrwt>0</asrwt>
<pdfrwt beam="1">  1        2 0.11179993E+00 0.27408154E+03</pdfrwt>
<pdfrwt beam="2">  1       -2 0.39758620E-02 0.27408154E+03</pdfrwt>
<totfact> 0.11063917E+04</totfact>
</mgrwt>
</event>
<event>
 9    1  0.2098759E-002  0.2754571E+03  0.7818608E-02  0.1098196E+00
         -1   -1    0    0    0  501 -0.00000000000E+00  0.00000000000E+00  0.41072951813E+02  0.41072951813E+02  0.00000000000E+00 0. -1.
          1   -1    0    0  501    0  0.00000000000E+00 -0.00000000000E+00 -0.46184066083E+03  0.46184066083E+03  0.00000000000E+00 0. -1.
         36    2    1    2    0    0 -0.71054273576E-14  0.35527136788E-14 -0.42076770902E+03  0.50291361264E+03  0.27545714155E+03 0.  0.
         25    2    3    3    0    0 -0.59356437684E+02  0.94850032542E+01 -0.25263580209E+03  0.28607373370E+03  0.12000075263E+03 0.  0.
         25    2    3    3    0    0  0.59356437684E+02 -0.94850032542E+01 -0.16813190692E+03  0.21683987894E+03  0.12303675464E+03 0.  0.
          5    1    4    4  502    0  0.12845575780E+02  0.45458976000E+02 -0.55580434023E+02  0.73094472858E+02  0.47000000000E+01 0.  1.
         -5    1    4    4    0  502 -0.72202013464E+02 -0.35973972746E+02 -0.19705536807E+03  0.21297926084E+03  0.47000000000E+01 0.  1.
          5    1    5    5  503    0  0.86777825965E+02 -0.38147380665E+02 -0.13454554197E+03  0.16465177374E+03  0.47000000000E+01 0.  1.
         -5    1    5    5    0  503 -0.27421388281E+02  0.28662377411E+02 -0.33586364950E+02  0.52188105203E+02  0.47000000000E+01 0.  1.
<mgrwt>
<rscale>  0 0.27545714E+03</rscale>
<asrwt>0</asrwt>
<pdfrwt beam="1">  1        1 0.71052407E-01 0.27545714E+03</pdfrwt>
<pdfrwt beam="2">  1       -1 0.63189159E-02 0.27545714E+03</pdfrwt>
<totfact> 0.61678990E+03</totfact>
</mgrwt>
</event>
<event>
 9    1  0.2098759E-002  0.2700359E+03  0.7818608E-02  0.1101259E+00
          1   -1    0    0  501    0  0.00000000000E+00  0.00000000000E+00  0.10334779846E+04  0.10334779846E+04  0.00000000000E+00 0. -1.
         -1   -1    0    0    0  501 -0.00000000000E+00 -0.00000000000E+00 -0.17639323944E+02  0.17639323944E+02  0.00000000000E+00 0. -1.
         36    2    1    2    0    0  0.71054273576E-14 -0.35527136788E-14  0.10158386607E+04  0.10511173086E+04  0.27003594546E+03 0.  0.
         25    2    3    3    0    0 -0.16575786885E+02  0.21433824157E+02  0.69454050432E+03  0.70587603111E+03  0.12304590053E+03 0.  0.
         25    2    3    3    0    0  0.16575786885E+02 -0.21433824157E+02  0.32129815638E+03  0.34524127747E+03  0.12338909533E+03 0.  0.
          5    1    4    4  502    0  0.43609369346E+02  0.38462739749E+01  0.48784994236E+03  0.48983285637E+03  0.47000000000E+01 0. -1.
         -5    1    4    4    0  502 -0.60185156231E+02  0.17587550182E+02  0.20669056196E+03  0.21604317475E+03  0.47000000000E+01 0. -1.
          5    1    5    5  503    0  0.47599527482E+02 -0.46582271890E+02  0.27900646212E+03  0.28688380744E+03  0.47000000000E+01 0.  1.
         -5    1    5    5    0  503 -0.31023740598E+02  0.25148447733E+02  0.42291694261E+02  0.58357470024E+02  0.47000000000E+01 0.  1.
<mgrwt>
<rscale>  0 0.27003595E+03</rscale>
<asrwt>0</asrwt>
<pdfrwt beam="1">  1        1 0.15899657E+00 0.27003595E+03</pdfrwt>
<pdfrwt beam="2">  1       -1 0.27137429E-02 0.27003595E+03</pdfrwt>
<totfact> 0.65969745E+03</totfact>
</mgrwt>
</event>
<event>
 9    1  0.2098759E-002  0.2765387E+03  0.7818608E-02  0.1097595E+00
          2   -1    0    0  501    0  0.00000000000E+00  0.00000000000E+00  0.99623782998E+03  0.99623782998E+03  0.00000000000E+00 0.  1.
         -2   -1    0    0    0  501 -0.00000000000E+00 -0.00000000000E+00 -0.19190609767E+02  0.19190609767E+02  0.00000000000E+00 0.  1.
         36    2    1    2    0    0  0.00000000000E+00 -0.71054273576E-14  0.97704722022E+03  0.10154284398E+04  0.27653868757E+03 0.  0.
         25    2    3    3    0    0  0.14441682894E+00  0.63203896485E+02  0.46598065174E+03  0.48642822108E+03  0.12441741469E+03 0.  0.
         25    2    3    3    0    0 -0.14441682894E+00 -0.63203896485E+02  0.51106656847E+03  0.52900021867E+03  0.12106791712E+03 0.  0.
          5    1    4    4  502    0  0.54812514541E+02  0.62130211231E+02  0.31625364380E+03  0.32696029134E+03  0.47000000000E+01 0.  1.
         -5    1    4    4    0  502 -0.54668097712E+02  0.10736852542E+01  0.14972700794E+03  0.15946792974E+03  0.47000000000E+01 0.  1.
          5    1    5    5  503    0  0.25173089199E+02  0.11522806856E+02  0.33297895654E+03  0.33416094176E+03  0.47000000000E+01 0.  1.
         -5    1    5    5    0  503 -0.25317506028E+02 -0.74726703341E+02  0.17808761193E+03  0.19483927691E+03  0.47000000000E+01 0.  1.
<mgrwt>
<rscale>  0 0.27653869E+03</rscale>
<asrwt>0</asrwt>
<pdfrwt beam="1">  1        2 0.15326732E+00 0.27653869E+03</pdfrwt>
<pdfrwt beam="2">  1       -2 0.29524023E-02 0.27653869E+03</pdfrwt>
<totfact> 0.11425380E+04</totfact>
</mgrwt>
</event>
<event>
 9    1  0.2098759E-002  0.2754029E+03  0.7818608E-02  0.1098227E+00
         -1   -1    0    0    0  501 -0.00000000000E+00  0.00000000000E+00  0.15053760662E+03  0.15053760662E+03  0.00000000000E+00 0. -1.
          1   -1    0    0  501    0  0.00000000000E+00 -0.00000000000E+00 -0.12595981849E+03  0.12595981849E+03  0.00000000000E+00 0. -1.
         36    2    1    2    0    0  0.35527136788E-14 -0.71054273576E-14  0.24577788124E+02  0.27649742511E+03  0.27540290199E+03 0.  0.
         25    2    3    3    0    0  0.30485691119E+02  0.22403643982E+02  0.42637873325E+02  0.14351340522E+03  0.13170728382E+03 0.  0.
         25    2    3    3    0    0 -0.30485691119E+02 -0.22403643982E+02 -0.18060085202E+02  0.13298401989E+03  0.12620333689E+03 0.  0.
          5    1    4    4  502    0  0.35806146017E+01 -0.54479298673E+02  0.23986425825E+02  0.59818503898E+02  0.47000000000E+01 0.  1.
         -5    1    4    4    0  502  0.26905076517E+02  0.76882942655E+02  0.18651447501E+02  0.83694901323E+02  0.47000000000E+01 0.  1.
          5    1    5    5  503    0  0.45121960573E+02  0.70688031086E+01  0.10004213207E+02  0.46990781917E+02  0.47000000000E+01 0. -1.
         -5    1    5    5    0  503 -0.75607651691E+02 -0.29472447091E+02 -0.28064298408E+02  0.85993237972E+02  0.47000000000E+01 0. -1.
<mgrwt>
<rscale>  0 0.27540290E+03</rscale>
<asrwt>0</asrwt>
<pdfrwt beam="1">  1        1 0.19378434E-01 0.27540290E+03</pdfrwt>
<pdfrwt beam="2">  1       -1 0.23159632E-01 0.27540290E+03</pdfrwt>
<totfact> 0.41849978E+03</totfact>
</mgrwt>
</event>
<event>
 9    1  0.2098759E-002  0.2747177E+03  0.7818608E-02  0.1098609E+00
          2   -1    0    0  501    0  0.00000000000E+00  0.00000000000E+00  0.86351793483E+02  0.86351793483E+02  0.00000000000E+00 0. -1.
         -2   -1    0    0    0  501 -0.00000000000E+00 -0.00000000000E+00 -0.21849526732E+03  0.21849526732E+03  0.00000000000E+00 0. -1.
         36    2    1    2    0    0  0.00000000000E+00  0.71054273576E-14 -0.13214347383E+03  0.30484706080E+03  0.27471773296E+03 0.  0.
         25    2    3    3    0    0  0.10038120845E+02  0.43660050830E+02 -0.10311882841E+03  0.16872606933E+03  0.12580949802E+03 0.  0.
         25    2    3    3    0    0 -0.10038120845E+02 -0.43660050830E+02 -0.29024645428E+02  0.13612099147E+03  0.12521793149E+03 0.  0.
          5    1    4    4  502    0 -0.54378263719E+02  0.39814705436E+02 -0.64329487276E+02  0.93287615830E+02  0.47000000000E+01 0. -1.
         -5    1    4    4    0  502  0.64416384563E+02  0.38453453937E+01 -0.38789341130E+02  0.75438453502E+02  0.47000000000E+01 0. -1.
          5    1    5    5  503    0  0.50260459278E+02 -0.15363465528E+01 -0.36097747515E+02  0.62077463730E+02  0.47000000000E+01 0.  1.
         -5    1    5    5    0  503 -0.60298580122E+02 -0.42123704277E+02  0.70731020871E+01  0.74043527738E+02  0.47000000000E+01 0.  1.
<mgrwt>
<rscale>  0 0.27471773E+03</rscale>
<asrwt>0</asrwt>
<pdfrwt beam="1">  1        2 0.13284891E-01 0.27471773E+03</pdfrwt>
<pdfrwt beam="2">  1       -2 0.33614657E-01 0.27471773E+03</pdfrwt>
<totfact> 0.37191074E+03</totfact>
</mgrwt>
</event>
<event>
 9    1  0.2098759E-002  0.2743571E+03  0.7818608E-02  0.1098811E+00
          2   -1    0    0  501    0  0.00000000000E+00  0.00000000000E+00  0.14260668070E+03  0.14260668070E+03  0.00000000000E+00 0. -1.
         -2   -1    0    0    0  501 -0.00000000000E+00 -0.00000000000E+00 -0.13195705388E+03  0.13195705388E+03  0.00000000000E+00 0. -1.
         36    2    1    2    0    0 -0.35527136788E-14  0.17763568394E-14  0.10649626820E+02  0.27456373457E+03  0.27435712091E+03 0.  0.
         25    2    3    3    0    0  0.13248584662E+02  0.48343786987E+01 -0.61403572968E+02  0.14359934602E+03  0.12904060288E+03 0.  0.
         25    2    3    3    0    0 -0.13248584662E+02 -0.48343786987E+01  0.72053199788E+02  0.13096438855E+03  0.10844865724E+03 0.  0.
          5    1    4    4  502    0  0.28651826495E+02 -0.57730440930E+02 -0.23901643851E+02  0.68899271043E+02  0.47000000000E+01 0.  1.
         -5    1    4    4    0  502 -0.15403241833E+02  0.62564819629E+02 -0.37501929117E+02  0.74700074978E+02  0.47000000000E+01 0.  1.
          5    1    5    5  503    0  0.53892712463E+01  0.71227764714E+01 -0.27278560353E+02  0.29085873618E+02  0.47000000000E+01 0. -1.
         -5    1    5    5    0  503 -0.18637855908E+02 -0.11957155170E+02  0.99331760140E+02  0.10187851493E+03  0.47000000000E+01 0. -1.
<mgrwt>
<rscale>  0 0.27435712E+03</rscale>
<asrwt>0</asrwt>
<pdfrwt beam="1">  1        2 0.21939489E-01 0.27435712E+03</pdfrwt>
<pdfrwt beam="2">  1       -2 0.20301085E-01 0.27435712E+03</pdfrwt>
<totfact> 0.50768039E+03</totfact>
</mgrwt>
</event>
<event>
 9    1  0.2098759E-002  0.2748541E+03  0.7818608E-02  0.1098533E+00
          2   -1    0    0  501    0  0.00000000000E+00  0.00000000000E+00  0.20279430428E+04  0.20279430428E+04  0.00000000000E+00 0. -1.
         -2   -1    0    0    0  501 -0.00000000000E+00 -0.00000000000E+00 -0.93129815776E+01  0.93129815776E+01  0.00000000000E+00 0. -1.
         36    2    1    2    0    0 -0.71054273576E-14  0.00000000000E+00  0.20186300612E+04  0.20372560244E+04  0.27485411547E+03 0.  0.
         25    2    3    3    0    0 -0.10188869486E+02  0.10224934527E+02  0.58924678493E+03  0.60235793529E+03  0.12415694225E+03 0.  0.
         25    2    3    3    0    0  0.10188869486E+02 -0.10224934527E+02  0.14293832763E+04  0.14348980891E+04  0.12485036315E+03 0.  0.
          5    1    4    4  502    0 -0.44448043100E+02 -0.32956875701E+02  0.15592056201E+03  0.16551463938E+03  0.47000000000E+01 0.  1.
         -5    1    4    4    0  502  0.34259173614E+02  0.43181810227E+02  0.43332622292E+03  0.43684329591E+03  0.47000000000E+01 0.  1.
          5    1    5    5  503    0  0.32121694085E+02 -0.30321871634E+02  0.18903734969E+03  0.19418658221E+03  0.47000000000E+01 0. -1.
         -5    1    5    5    0  503 -0.21932824599E+02  0.20096937107E+02  0.12403459266E+04  0.12407115069E+04  0.47000000000E+01 0. -1.
<mgrwt>
<rscale>  0 0.27485412E+03</rscale>
<asrwt>0</asrwt>
<pdfrwt beam="1">  1        2 0.31199089E+00 0.27485412E+03</pdfrwt>
<pdfrwt beam="2">  1       -2 0.14327680E-02 0.27485412E+03</pdfrwt>
<totfact> 0.90614353E+03</totfact>
</mgrwt>
</event>
<event>
 9    1  0.2098759E-002  0.2704728E+03  0.7818608E-02  0.1101009E+00
         -2   -1    0    0    0  501 -0.00000000000E+00  0.00000000000E+00  0.16620761102E+02  0.16620761102E+02  0.00000000000E+00 0.  1.
          2   -1    0    0  501    0  0.00000000000E+00 -0.00000000000E+00 -0.11003634775E+04  0.11003634775E+04  0.00000000000E+00 0.  1.
         36    2    1    2    0    0 -0.35527136788E-14  0.00000000000E+00 -0.10837427164E+04  0.11169842386E+04  0.27047276007E+03 0.  0.
         25    2    3    3    0    0  0.13082645213E+02  0.36507354678E+02 -0.48160050035E+03  0.50021493939E+03  0.12950676081E+03 0.  0.
         25    2    3    3    0    0 -0.13082645213E+02 -0.36507354678E+02 -0.60214221606E+03  0.61676929923E+03  0.12777001823E+03 0.  0.
          5    1    4    4  502    0  0.15641576838E+02 -0.19292461303E+01 -0.44964051525E+03  0.44994117824E+03  0.47000000000E+01 0. -1.
         -5    1    4    4    0  502 -0.25589316250E+01  0.38436600809E+02 -0.31959985102E+02  0.50273761153E+02  0.47000000000E+01 0. -1.
          5    1    5    5  503    0 -0.48193007426E+02  0.27949781250E+02 -0.33737549980E+03  0.34197671573E+03  0.47000000000E+01 0.  1.
         -5    1    5    5    0  503  0.35110362213E+02 -0.64457135928E+02 -0.26476671627E+03  0.27479258350E+03  0.47000000000E+01 0.  1.
<mgrwt>
<rscale>  0 0.27047276E+03</rscale>
<asrwt>0</asrwt>
<pdfrwt beam="1">  1        2 0.16928681E+00 0.27047276E+03</pdfrwt>
<pdfrwt beam="2">  1       -2 0.25570384E-02 0.27047276E+03</pdfrwt>
<totfact> 0.12239761E+04</totfact>
</mgrwt>
</event>
<event>
 9    1  0.2098759E-002  0.2755735E+03  0.7818608E-02  0.1098131E+00
         -2   -1    0    0    0  501 -0.00000000000E+00  0.00000000000E+00  0.32587318144E+02  0.32587318144E+02  0.00000000000E+00 0. -1.
          2   -1    0    0  501    0  0.00000000000E+00 -0.00000000000E+00 -0.58259455668E+03  0.58259455668E+03  0.00000000000E+00 0. -1.
         36    2    1    2    0    0  0.00000000000E+00 -0.71054273576E-14 -0.55000723854E+03  0.61518187483E+03  0.27557354131E+03 0.  0.
         25    2    3    3    0    0  0.14219127760E+02 -0.52308257446E+02 -0.29920275032E+03  0.32877810631E+03  0.12503767431E+03 0.  0.
         25    2    3    3    0    0 -0.14219127760E+02  0.52308257446E+02 -0.25080448822E+03  0.28640376852E+03  0.12722377891E+03 0.  0.
          5    1    4    4  502    0 -0.55304496876E+02 -0.26561902568E+02 -0.12216687752E+03  0.13678800388E+03  0.47000000000E+01 0.  1.
         -5    1    4    4    0  502  0.69523624636E+02 -0.25746354878E+02 -0.17703587280E+03  0.19199010243E+03  0.47000000000E+01 0.  1.
          5    1    5    5  503    0  0.27264255324E+02 -0.12906171965E+02 -0.80120002539E+01  0.31562494217E+02  0.47000000000E+01 0. -1.
         -5    1    5    5    0  503 -0.41483383084E+02  0.65214429411E+02 -0.24279248796E+03  0.25484127430E+03  0.47000000000E+01 0. -1.
<mgrwt>
<rscale>  0 0.27557354E+03</rscale>
<asrwt>0</asrwt>
<pdfrwt beam="1">  1        2 0.89629926E-01 0.27557354E+03</pdfrwt>
<pdfrwt beam="2">  1       -2 0.50134339E-02 0.27557354E+03</pdfrwt>
<totfact> 0.10135130E+04</totfact>
</mgrwt>
</event>
<event>
 9    1  0.2098759E-002  0.2745166E+03  0.7818608E-02  0.1098722E+00
         -2   -1    0    0    0  501 -0.00000000000E+00  0.00000000000E+00  0.36945598555E+02  0.36945598555E+02  0.00000000000E+00 0. -1.
          2   -1    0    0  501    0  0.00000000000E+00 -0.00000000000E+00 -0.50993468356E+03  0.50993468356E+03  0.00000000000E+00 0. -1.
         36    2    1    2    0    0  0.88817841970E-15 -0.53290705182E-14 -0.47298908501E+03  0.54688028212E+03  0.27451660866E+03 0.  0.
         25    2    3    3    0    0 -0.74704001088E+01 -0.78498634361E+01 -0.13530830358E+03  0.18604846323E+03  0.12723311840E+03 0.  0.
         25    2    3    3    0    0  0.74704001088E+01  0.78498634361E+01 -0.33768078142E+03  0.36083181888E+03  0.12670384423E+03 0.  0.
          5    1    4    4  502    0 -0.20386949164E+02  0.33066933378E+02  0.48175718267E+01  0.39425230216E+02  0.47000000000E+01 0.  1.
         -5    1    4    4    0  502  0.12916549055E+02 -0.40916796814E+02 -0.14012587541E+03  0.14662323302E+03  0.47000000000E+01 0.  1.
          5    1    5    5  503    0  0.46969951865E+01  0.13325272048E+02 -0.34778829268E+03  0.34810689617E+03  0.47000000000E+01 0.  1.
         -5    1    5    5    0  503  0.27734049224E+01 -0.54754086120E+01  0.10107511253E+02  0.12724922713E+02  0.47000000000E+01 0.  1.
<mgrwt>
<rscale>  0 0.27451661E+03</rscale>
<asrwt>0</asrwt>
<pdfrwt beam="1">  1        2 0.78451481E-01 0.27451661E+03</pdfrwt>
<pdfrwt beam="2">  1       -2 0.56839389E-02 0.27451661E+03</pdfrwt>
<totfact> 0.97372119E+03</totfact>
</mgrwt>
</event>
<event>
 9    1  0.2098759E-002  0.2728079E+03  0.7818608E-02  0.1099683E+00
         -3   -1    0    0    0  501 -0.00000000000E+00  0.00000000000E+00  0.33919710890E+03  0.33919710890E+03  0.00000000000E+00 0.  1.
          3   -1    0    0  501    0  0.00000000000E+00 -0.00000000000E+00 -0.54853171153E+02  0.54853171153E+02  0.00000000000E+00 0.  1.
         36    2    1    2    0    0  0.00000000000E+00 -0.71054273576E-14  0.28434393775E+03  0.39405028005E+03  0.27280789629E+03 0.  0.
         25    2    3    3    0    0 -0.18235873194E+02  0.27599583326E+02  0.94901190727E+02  0.16444404371E+03  0.13015883927E+03 0.  0.
         25    2    3    3    0    0  0.18235873194E+02 -0.27599583326E+02  0.18944274702E+03  0.22960623634E+03  0.12544395281E+03 0.  0.
          5    1    4    4  502    0 -0.45831116645E+02 -0.36620477775E+02  0.66627339986E+02  0.88897936303E+02  0.47000000000E+01 0. -1.
         -5    1    4    4    0  502  0.27595243451E+02  0.64220061101E+02  0.28273850741E+02  0.75546107409E+02  0.47000000000E+01 0. -1.
          5    1    5    5  503    0  0.36508267709E+02  0.14634952093E+02  0.17745295087E+03  0.18182044771E+03  0.47000000000E+01 0.  1.
         -5    1    5    5    0  503 -0.18272394515E+02 -0.42234535418E+02  0.11989796153E+02  0.47785788631E+02  0.47000000000E+01 0.  1.
<mgrwt>
<rscale>  0 0.27280790E+03</rscale>
<asrwt>0</asrwt>
<pdfrwt beam="1">  1        3 0.84389496E-02 0.27280790E+03</pdfrwt>
<pdfrwt beam="2">  1       -3 0.52184169E-01 0.27280790E+03</pdfrwt>
<totfact> 0.90957331E+02</totfact>
</mgrwt>
</event>
<event>
 9    1  0.2098759E-002  0.2767605E+03  0.7818608E-02  0.1097472E+00
         -2   -1    0    0    0  501 -0.00000000000E+00  0.00000000000E+00  0.16236125305E+02  0.16236125305E+02  0.00000000000E+00 0.  1.
          2   -1    0    0  501    0  0.00000000000E+00 -0.00000000000E+00 -0.11794128583E+04  0.11794128583E+04  0.00000000000E+00 0.  1.
         36    2    1    2    0    0  0.00000000000E+00  0.35527136788E-14 -0.11631767330E+04  0.11956489836E+04  0.27676050986E+03 0.  0.
         25    2    3    3    0    0 -0.39177612156E+02  0.18188143689E+02 -0.70109272808E+03  0.71390174505E+03  0.12751076168E+03 0.  0.
         25    2    3    3    0    0  0.39177612156E+02 -0.18188143689E+02 -0.46208400494E+03  0.48174723859E+03  0.12920170432E+03 0.  0.
          5    1    4    4  502    0  0.32941634178E+02  0.39160283482E+02 -0.17289971265E+03  0.18037483111E+03  0.47000000000E+01 0.  1.
         -5    1    4    4    0  502 -0.72119246333E+02 -0.20972139794E+02 -0.52819301544E+03  0.53352691394E+03  0.47000000000E+01 0.  1.
          5    1    5    5  503    0  0.83768271403E+02  0.79178246174E+01 -0.27823741386E+03  0.29071973396E+03  0.47000000000E+01 0.  1.
         -5    1    5    5    0  503 -0.44590659247E+02 -0.26105968306E+02 -0.18384659108E+03  0.19102750463E+03  0.47000000000E+01 0.  1.
<mgrwt>
<rscale>  0 0.27676051E+03</rscale>
<asrwt>0</asrwt>
<pdfrwt beam="1">  1        2 0.18144813E+00 0.27676051E+03</pdfrwt>
<pdfrwt beam="2">  1       -2 0.24978654E-02 0.27676051E+03</pdfrwt>
<totfact> 0.11411322E+04</totfact>
</mgrwt>
</event>
<event>
 9    1  0.2098759E-002  0.2746508E+03  0.7818608E-02  0.1098647E+00
         -1   -1    0    0    0  501 -0.00000000000E+00  0.00000000000E+00  0.80718763532E+01  0.80718763532E+01  0.00000000000E+00 0. -1.
          1   -1    0    0  501    0  0.00000000000E+00 -0.00000000000E+00 -0.23362924251E+04  0.23362924251E+04  0.00000000000E+00 0. -1.
         36    2    1    2    0    0  0.00000000000E+00  0.00000000000E+00 -0.23282205487E+04  0.23443643014E+04  0.27465078613E+03 0.  0.
         25    2    3    3    0    0 -0.34591744655E+02  0.24600502576E+02 -0.14875686570E+04  0.14932065845E+04  0.12248926954E+03 0.  0.
         25    2    3    3    0    0  0.34591744655E+02 -0.24600502576E+02 -0.84065189173E+03  0.85115771695E+03  0.12638070470E+03 0.  0.
          5    1    4    4  502    0  0.35611865187E+02  0.33585131055E+02 -0.90508376322E+03  0.90641870811E+03  0.47000000000E+01 0.  1.
         -5    1    4    4    0  502 -0.70203609842E+02 -0.89846284790E+01 -0.58248489374E+03  0.58678787634E+03  0.47000000000E+01 0.  1.
          5    1    5    5  503    0 -0.57817821294E+01 -0.39891177019E+02 -0.84289934663E+02  0.93550083346E+02  0.47000000000E+01 0. -1.
         -5    1    5    5    0  503  0.40373526785E+02  0.15290674442E+02 -0.75636195707E+03  0.75760763360E+03  0.47000000000E+01 0. -1.
<mgrwt>
<rscale>  0 0.27465079E+03</rscale>
<asrwt>0</asrwt>
<pdfrwt beam="1">  1        1 0.35942990E+00 0.27465079E+03</pdfrwt>
<pdfrwt beam="2">  1       -1 0.12418261E-02 0.27465079E+03</pdfrwt>
<totfact> 0.27955874E+03</totfact>
</mgrwt>
</event>
<event>
 9    1  0.2098759E-002  0.2754934E+03  0.7818608E-02  0.1098176E+00
          2   -1    0    0  501    0  0.00000000000E+00  0.00000000000E+00  0.12877869027E+04  0.12877869027E+04  0.00000000000E+00 0. -1.
         -2   -1    0    0    0  501 -0.00000000000E+00 -0.00000000000E+00 -0.14733918601E+02  0.14733918601E+02  0.00000000000E+00 0. -1.
         36    2    1    2    0    0  0.00000000000E+00  0.00000000000E+00  0.12730529841E+04  0.13025208213E+04  0.27549335672E+03 0.  0.
         25    2    3    3    0    0  0.43059987848E+02  0.28351576314E+02  0.73040113522E+03  0.74340623321E+03  0.12848748892E+03 0.  0.
         25    2    3    3    0    0 -0.43059987848E+02 -0.28351576314E+02  0.54265184889E+03  0.55911458811E+03  0.12441912672E+03 0.  0.
          5    1    4    4  502    0  0.71173173913E+02  0.43191181030E+02  0.28770345506E+03  0.29954376451E+03  0.47000000000E+01 0.  1.
         -5    1    4    4    0  502 -0.28113186065E+02 -0.14839604716E+02  0.44269768016E+03  0.44386246870E+03  0.47000000000E+01 0.  1.
          5    1    5    5  503    0 -0.48507511825E+02 -0.56083347450E+02  0.51119533505E+03  0.51656662798E+03  0.47000000000E+01 0.  1.
         -5    1    5    5    0  503  0.54475239769E+01  0.27731771136E+02  0.31456513841E+02  0.42547960125E+02  0.47000000000E+01 0.  1.
<mgrwt>
<rscale>  0 0.27549336E+03</rscale>
<asrwt>0</asrwt>
<pdfrwt beam="1">  1        2 0.19812097E+00 0.27549336E+03</pdfrwt>
<pdfrwt beam="2">  1       -2 0.22667577E-02 0.27549336E+03</pdfrwt>
<totfact> 0.11443589E+04</totfact>
</mgrwt>
</event>
<event>
 9    1  0.2098759E-002  0.2772067E+03  0.7818608E-02  0.1097224E+00
          2   -1    0    0  501    0  0.00000000000E+00  0.00000000000E+00  0.32816986557E+03  0.32816986557E+03  0.00000000000E+00 0.  1.
         -2   -1    0    0    0  501 -0.00000000000E+00 -0.00000000000E+00 -0.58539444763E+02  0.58539444763E+02  0.00000000000E+00 0.  1.
         36    2    1    2    0    0 -0.71054273576E-14  0.00000000000E+00  0.26963042081E+03  0.38670931033E+03  0.27720665012E+03 0.  0.
         25    2    3    3    0    0 -0.33455818797E+02  0.21160953977E+02  0.11472405504E+03  0.17311187267E+03  0.12344648181E+03 0.  0.
         25    2    3    3    0    0  0.33455818797E+02 -0.21160953977E+02  0.15490636577E+03  0.21359743766E+03  0.14163617276E+03 0.  0.
          5    1    4    4  502    0 -0.70298750720E+02 -0.20522092065E+02  0.72041596826E+02  0.10283555946E+03  0.47000000000E+01 0.  1.
         -5    1    4    4    0  502  0.36842931923E+02  0.41683046042E+02  0.42682458216E+02  0.70276313216E+02  0.47000000000E+01 0.  1.
          5    1    5    5  503    0 -0.36471635903E+02  0.31004581548E+02  0.18343853589E+02  0.51478648651E+02  0.47000000000E+01 0. -1.
         -5    1    5    5    0  503  0.69927454701E+02 -0.52165535525E+02  0.13656251218E+03  0.16211878901E+03  0.47000000000E+01 0. -1.
<mgrwt>
<rscale>  0 0.27720665E+03</rscale>
<asrwt>0</asrwt>
<pdfrwt beam="1">  1        2 0.50487671E-01 0.27720665E+03</pdfrwt>
<pdfrwt beam="2">  1       -2 0.90060686E-02 0.27720665E+03</pdfrwt>
<totfact> 0.77217347E+03</totfact>
</mgrwt>
</event>
<event>
 9    1  0.2098759E-002  0.2820427E+03  0.7818608E-02  0.1094578E+00
         -2   -1    0    0    0  501 -0.00000000000E+00  0.00000000000E+00  0.17842616018E+02  0.17842616018E+02  0.00000000000E+00 0.  1.
          2   -1    0    0  501    0  0.00000000000E+00 -0.00000000000E+00 -0.11145797006E+04  0.11145797006E+04  0.00000000000E+00 0.  1.
         36    2    1    2    0    0 -0.17763568394E-14  0.71054273576E-14 -0.10967370846E+04  0.11324223166E+04  0.28204267492E+03 0.  0.
         25    2    3    3    0    0  0.83888321325E+01  0.99091785375E+01 -0.80163059781E+03  0.81150629801E+03  0.12554796709E+03 0.  0.
         25    2    3    3    0    0 -0.83888321325E+01 -0.99091785375E+01 -0.29510648676E+03  0.32091601859E+03  0.12542204009E+03 0.  0.
          5    1    4    4  502    0  0.47111464101E+02  0.39989652387E+02 -0.24561379423E+03  0.25331183996E+03  0.47000000000E+01 0.  1.
         -5    1    4    4    0  502 -0.38722631968E+02 -0.30080473850E+02 -0.55601680358E+03  0.55819445805E+03  0.47000000000E+01 0.  1.
          5    1    5    5  503    0 -0.12183185934E+02 -0.50564540120E+02 -0.49704960983E+02  0.72096295906E+02  0.47000000000E+01 0. -1.
         -5    1    5    5    0  503  0.37943538011E+01  0.40655361583E+02 -0.24540152577E+03  0.24881972269E+03  0.47000000000E+01 0. -1.
<mgrwt>
<rscale>  0 0.28204267E+03</rscale>
<asrwt>0</asrwt>
<pdfrwt beam="1">  1        2 0.17147377E+00 0.28204267E+03</pdfrwt>
<pdfrwt beam="2">  1       -2 0.27450183E-02 0.28204267E+03</pdfrwt>
<totfact> 0.10821801E+04</totfact>
</mgrwt>
</event>
<event>
 9    1  0.2098759E-002  0.2740728E+03  0.7818608E-02  0.1098971E+00
          3   -1    0    0  501    0  0.00000000000E+00  0.00000000000E+00  0.18271551057E+03  0.18271551057E+03  0.00000000000E+00 0.  1.
         -3   -1    0    0    0  501 -0.00000000000E+00 -0.00000000000E+00 -0.10277712602E+03  0.10277712602E+03  0.00000000000E+00 0.  1.
         36    2    1    2    0    0  0.00000000000E+00  0.00000000000E+00  0.79938384548E+02  0.28549263659E+03  0.27407280096E+03 0.  0.
         25    2    3    3    0    0 -0.33567321993E+02 -0.98722053350E+01 -0.15660314191E+02  0.12245215549E+03  0.11629728887E+03 0.  0.
         25    2    3    3    0    0  0.33567321993E+02  0.98722053350E+01  0.95598698739E+02  0.16304048110E+03  0.12735329494E+03 0.  0.
          5    1    4    4  502    0 -0.61702053710E+02 -0.25481234289E+02 -0.43356868318E+02  0.79739229763E+02  0.47000000000E+01 0.  1.
         -5    1    4    4    0  502  0.28134731717E+02  0.15609028954E+02  0.27696554127E+02  0.42712925727E+02  0.47000000000E+01 0.  1.
          5    1    5    5  503    0 -0.24950517544E+01 -0.44768203342E+02  0.85463992227E+02  0.96626090064E+02  0.47000000000E+01 0. -1.
         -5    1    5    5    0  503  0.36062373747E+02  0.54640408677E+02  0.10134706513E+02  0.66414391037E+02  0.47000000000E+01 0. -1.
<mgrwt>
<rscale>  0 0.27407280E+03</rscale>
<asrwt>0</asrwt>
<pdfrwt beam="1">  1        3 0.28110079E-01 0.27407280E+03</pdfrwt>
<pdfrwt beam="2">  1       -3 0.15811866E-01 0.27407280E+03</pdfrwt>
<totfact> 0.10438213E+03</totfact>
</mgrwt>
</event>
<event>
 9    1  0.2098759E-002  0.2757804E+03  0.7818608E-02  0.1098016E+00
         -2   -1    0    0    0  501 -0.00000000000E+00  0.00000000000E+00  0.22833989434E+02  0.22833989434E+02  0.00000000000E+00 0.  1.
          2   -1    0    0  501    0  0.00000000000E+00 -0.00000000000E+00 -0.83269287741E+03  0.83269287741E+03  0.00000000000E+00 0.  1.
         36    2    1    2    0    0  0.00000000000E+00  0.00000000000E+00 -0.80985888798E+03  0.85552686684E+03  0.27578035002E+03 0.  0.
         25    2    3    3    0    0 -0.44342986545E+02  0.24429594506E+02 -0.33696707731E+03  0.36399701435E+03  0.12799964735E+03 0.  0.
         25    2    3    3    0    0  0.44342986545E+02 -0.24429594506E+02 -0.47289181066E+03  0.49152985249E+03  0.12414437463E+03 0.  0.
          5    1    4    4  502    0  0.96414012613E+01  0.57624880366E+02 -0.79311403742E+02  0.98620343840E+02  0.47000000000E+01 0.  1.
         -5    1    4    4    0  502 -0.53984387806E+02 -0.33195285860E+02 -0.25765567357E+03  0.26537667051E+03  0.47000000000E+01 0.  1.
          5    1    5    5  503    0  0.61439341012E+02  0.33773984108E+02 -0.30391586431E+03  0.31193335379E+03  0.47000000000E+01 0.  1.
         -5    1    5    5    0  503 -0.17096354467E+02 -0.58203578614E+02 -0.16897594636E+03  0.17959649870E+03  0.47000000000E+01 0.  1.
<mgrwt>
<rscale>  0 0.27578035E+03</rscale>
<asrwt>0</asrwt>
<pdfrwt beam="1">  1        2 0.12810657E+00 0.27578035E+03</pdfrwt>
<pdfrwt beam="2">  1       -2 0.35129221E-02 0.27578035E+03</pdfrwt>
<totfact> 0.11224354E+04</totfact>
</mgrwt>
</event>
<event>
 9    1  0.2098759E-002  0.2752229E+03  0.7818608E-02  0.1098327E+00
         -2   -1    0    0    0  501 -0.00000000000E+00  0.00000000000E+00  0.53084487376E+02  0.53084487376E+02  0.00000000000E+00 0. -1.
          2   -1    0    0  501    0  0.00000000000E+00 -0.00000000000E+00 -0.35673159191E+03  0.35673159191E+03  0.00000000000E+00 0. -1.
         36    2    1    2    0    0 -0.21316282073E-13  0.00000000000E+00 -0.30364710453E+03  0.40981607928E+03  0.27522291828E+03 0.  0.
         25    2    3    3    0    0 -0.54802389969E+02 -0.11909869769E+02 -0.17537501336E+03  0.22331236495E+03  0.12636008106E+03 0.  0.
         25    2    3    3    0    0  0.54802389969E+02  0.11909869769E+02 -0.12827209118E+03  0.18650371433E+03  0.12322645471E+03 0.  0.
          5    1    4    4  502    0 -0.48086061960E+02  0.53628793639E+02 -0.93149739573E+02  0.11784430765E+03  0.47000000000E+01 0.  1.
         -5    1    4    4    0  502 -0.67163280097E+01 -0.65538663408E+02 -0.82225273782E+02  0.10546805731E+03  0.47000000000E+01 0.  1.
          5    1    5    5  503    0  0.84096559279E+02 -0.25084514985E+02 -0.80186337651E+02  0.11896807522E+03  0.47000000000E+01 0. -1.
         -5    1    5    5    0  503 -0.29294169310E+02  0.36994384754E+02 -0.48085753524E+02  0.67535639116E+02  0.47000000000E+01 0. -1.
<mgrwt>
<rscale>  0 0.27522292E+03</rscale>
<asrwt>0</asrwt>
<pdfrwt beam="1">  1        2 0.54881781E-01 0.27522292E+03</pdfrwt>
<pdfrwt beam="2">  1       -2 0.81668445E-02 0.27522292E+03</pdfrwt>
<totfact> 0.82264269E+03</totfact>
</mgrwt>
</event>
<event>
 9    1  0.2098759E-002  0.2725283E+03  0.7818608E-02  0.1099841E+00
          1   -1    0    0  501    0  0.00000000000E+00  0.00000000000E+00  0.86843458168E+03  0.86843458168E+03  0.00000000000E+00 0. -1.
         -1   -1    0    0    0  501 -0.00000000000E+00 -0.00000000000E+00 -0.21380902881E+02  0.21380902881E+02  0.00000000000E+00 0. -1.
         36    2    1    2    0    0  0.00000000000E+00 -0.71054273576E-14  0.84705367880E+03  0.88981548456E+03  0.27252827706E+03 0.  0.
         25    2    3    3    0    0  0.35900721670E+02  0.32423800765E+02  0.48502247882E+03  0.50314376751E+03  0.12476650651E+03 0.  0.
         25    2    3    3    0    0 -0.35900721670E+02 -0.32423800765E+02  0.36203119998E+03  0.38667171705E+03  0.12691832941E+03 0.  0.
          5    1    4    4  502    0 -0.11125838929E+02  0.32538784711E+02  0.30602225018E+02  0.46272486192E+02  0.47000000000E+01 0. -1.
         -5    1    4    4    0  502  0.47026560600E+02 -0.11498394602E+00  0.45442025381E+03  0.45687128132E+03  0.47000000000E+01 0. -1.
          5    1    5    5  503    0 -0.60472438947E+02 -0.43551741673E+02  0.10876768916E+03  0.13193244590E+03  0.47000000000E+01 0.  1.
         -5    1    5    5    0  503  0.24571717277E+02  0.11127940908E+02  0.25326351081E+03  0.25473927115E+03  0.47000000000E+01 0.  1.
<mgrwt>
<rscale>  0 0.27252828E+03</rscale>
<asrwt>0</asrwt>
<pdfrwt beam="1">  1        1 0.13360529E+00 0.27252828E+03</pdfrwt>
<pdfrwt beam="2">  1       -1 0.32893703E-02 0.27252828E+03</pdfrwt>
<totfact> 0.66480131E+03</totfact>
</mgrwt>
</event>
<event>
 9    1  0.2098759E-002  0.2748537E+03  0.7818608E-02  0.1098533E+00
          1   -1    0    0  501    0  0.00000000000E+00  0.00000000000E+00  0.51608217978E+03  0.51608217978E+03  0.00000000000E+00 0. -1.
         -1   -1    0    0    0  501 -0.00000000000E+00 -0.00000000000E+00 -0.36595222405E+02  0.36595222405E+02  0.00000000000E+00 0. -1.
         36    2    1    2    0    0  0.10658141036E-13 -0.71054273576E-14  0.47948695738E+03  0.55267740219E+03  0.27485372217E+03 0.  0.
         25    2    3    3    0    0  0.30577527971E+02 -0.29864324075E+02  0.30963382470E+03  0.33591254390E+03  0.12303360794E+03 0.  0.
         25    2    3    3    0    0 -0.30577527971E+02  0.29864324075E+02  0.16985313268E+03  0.21676485828E+03  0.12771082193E+03 0.  0.
          5    1    4    4  502    0 -0.28932011135E+02 -0.55518965326E+02  0.18494610245E+03  0.19531146303E+03  0.47000000000E+01 0. -1.
         -5    1    4    4    0  502  0.59509539106E+02  0.25654641251E+02  0.12468772225E+03  0.14060108087E+03  0.47000000000E+01 0. -1.
          5    1    5    5  503    0 -0.17982811794E+01 -0.46328093554E+02  0.31829279413E+02  0.56433315475E+02  0.47000000000E+01 0. -1.
         -5    1    5    5    0  503 -0.28779246791E+02  0.76192417629E+02  0.13802385326E+03  0.16033154281E+03  0.47000000000E+01 0. -1.
<mgrwt>
<rscale>  0 0.27485372E+03</rscale>
<asrwt>0</asrwt>
<pdfrwt beam="1">  1        1 0.79397253E-01 0.27485372E+03</pdfrwt>
<pdfrwt beam="2">  1       -1 0.56300346E-02 0.27485372E+03</pdfrwt>
<totfact> 0.63374593E+03</totfact>
</mgrwt>
</event>
<event>
 9    1  0.2098759E-002  0.2863051E+03  0.7818608E-02  0.1092294E+00
         -2   -1    0    0    0  501 -0.00000000000E+00  0.00000000000E+00  0.80966102687E+02  0.80966102687E+02  0.00000000000E+00 0. -1.
          2   -1    0    0  501    0  0.00000000000E+00 -0.00000000000E+00 -0.25310171138E+03  0.25310171138E+03  0.00000000000E+00 0. -1.
         36    2    1    2    0    0 -0.71054273576E-14  0.00000000000E+00 -0.17213560869E+03  0.33406781406E+03  0.28630514598E+03 0.  0.
         25    2    3    3    0    0  0.32057369205E+02  0.57613954935E+02 -0.68284202837E+02  0.15616887510E+03  0.12401186423E+03 0.  0.
         25    2    3    3    0    0 -0.32057369205E+02 -0.57613954935E+02 -0.10385140585E+03  0.17789893896E+03  0.12851410531E+03 0.  0.
          5    1    4    4  502    0  0.13387209222E+02 -0.38921715276E+02 -0.13832999796E+02  0.43675613037E+02  0.47000000000E+01 0. -1.
         -5    1    4    4    0  502  0.18670159984E+02  0.96535670211E+02 -0.54451203041E+02  0.11249326206E+03  0.47000000000E+01 0. -1.
          5    1    5    5  503    0  0.48937908561E+02 -0.12537146182E+02 -0.27457892890E+02  0.57689902155E+02  0.47000000000E+01 0. -1.
         -5    1    5    5    0  503 -0.80995277766E+02 -0.45076808753E+02 -0.76393512962E+02  0.12020903681E+03  0.47000000000E+01 0. -1.
<mgrwt>
<rscale>  0 0.28630515E+03</rscale>
<asrwt>0</asrwt>
<pdfrwt beam="1">  1        2 0.38938725E-01 0.28630515E+03</pdfrwt>
<pdfrwt beam="2">  1       -2 0.12456324E-01 0.28630515E+03</pdfrwt>
<totfact> 0.60893129E+03</totfact>
</mgrwt>
</event>
<event>
 9    1  0.2098759E-002  0.2818466E+03  0.7818608E-02  0.1094685E+00
         -2   -1    0    0    0  501 -0.00000000000E+00  0.00000000000E+00  0.13228919596E+02  0.13228919596E+02  0.00000000000E+00 0. -1.
          2   -1    0    0  501    0  0.00000000000E+00 -0.00000000000E+00 -0.15012089685E+04  0.15012089685E+04  0.00000000000E+00 0. -1.
         36    2    1    2    0    0  0.00000000000E+00 -0.35527136788E-14 -0.14879800489E+04  0.15144378881E+04  0.28184657345E+03 0.  0.
         25    2    3    3    0    0  0.22789320970E+02  0.14173126074E+02 -0.41070815016E+03  0.42956167510E+03  0.12297079918E+03 0.  0.
         25    2    3    3    0    0 -0.22789320970E+02 -0.14173126074E+02 -0.10772718987E+04  0.10848762130E+04  0.12538509902E+03 0.  0.
          5    1    4    4  502    0 -0.35020921294E+02  0.36382129449E+02 -0.93881915506E+02  0.10670533412E+03  0.47000000000E+01 0. -1.
         -5    1    4    4    0  502  0.57810242264E+02 -0.22209003375E+02 -0.31682623465E+03  0.32285634097E+03  0.47000000000E+01 0. -1.
          5    1    5    5  503    0 -0.46556334984E+02  0.44559806969E+02 -0.56184356949E+03  0.56554695234E+03  0.47000000000E+01 0.  1.
         -5    1    5    5    0  503  0.23767014014E+02 -0.58732933043E+02 -0.51542832922E+03  0.51932926062E+03  0.47000000000E+01 0.  1.
<mgrwt>
<rscale>  0 0.28184657E+03</rscale>
<asrwt>0</asrwt>
<pdfrwt beam="1">  1        2 0.23095514E+00 0.28184657E+03</pdfrwt>
<pdfrwt beam="2">  1       -2 0.20352192E-02 0.28184657E+03</pdfrwt>
<totfact> 0.10270306E+04</totfact>
</mgrwt>
</event>
<event>
 9    1  0.2098759E-002  0.2731761E+03  0.7818608E-02  0.1099475E+00
          2   -1    0    0  501    0  0.00000000000E+00  0.00000000000E+00  0.56872900432E+03  0.56872900432E+03  0.00000000000E+00 0.  1.
         -2   -1    0    0    0  501 -0.00000000000E+00 -0.00000000000E+00 -0.32803484980E+02  0.32803484980E+02  0.00000000000E+00 0.  1.
         36    2    1    2    0    0  0.00000000000E+00 -0.53290705182E-14  0.53592551934E+03  0.60153248930E+03  0.27317608498E+03 0.  0.
         25    2    3    3    0    0 -0.35300294432E+02  0.11956990895E+02  0.16332068137E+03  0.20658374128E+03  0.12088886127E+03 0.  0.
         25    2    3    3    0    0  0.35300294432E+02 -0.11956990895E+02  0.37260483797E+03  0.39494874802E+03  0.12554309167E+03 0.  0.
          5    1    4    4  502    0 -0.59455604626E+01 -0.36102843292E+02  0.14112994910E+03  0.14587157885E+03  0.47000000000E+01 0. -1.
         -5    1    4    4    0  502 -0.29354733969E+02  0.48059834187E+02  0.22190732273E+02  0.60712162434E+02  0.47000000000E+01 0. -1.
          5    1    5    5  503    0  0.28410817478E+02 -0.11917915237E+02  0.38149096623E+03  0.38276188234E+03  0.47000000000E+01 0.  1.
         -5    1    5    5    0  503  0.68894769536E+01 -0.39075658222E-01 -0.88861282646E+01  0.12186865681E+02  0.47000000000E+01 0.  1.
<mgrwt>
<rscale>  0 0.27317608E+03</rscale>
<asrwt>0</asrwt>
<pdfrwt beam="1">  1        2 0.87496763E-01 0.27317608E+03</pdfrwt>
<pdfrwt beam="2">  1       -2 0.50466904E-02 0.27317608E+03</pdfrwt>
<totfact> 0.10312160E+04</totfact>
</mgrwt>
</event>
<event>
 9    1  0.2098759E-002  0.2741456E+03  0.7818608E-02  0.1098930E+00
         -2   -1    0    0    0  501 -0.00000000000E+00  0.00000000000E+00  0.48301676126E+03  0.48301676126E+03  0.00000000000E+00 0. -1.
          2   -1    0    0  501    0  0.00000000000E+00 -0.00000000000E+00 -0.38899186459E+02  0.38899186459E+02  0.00000000000E+00 0. -1.
         36    2    1    2    0    0  0.00000000000E+00 -0.71054273576E-14  0.44411757480E+03  0.52191594772E+03  0.27414564785E+03 0.  0.
         25    2    3    3    0    0  0.58996431044E+02 -0.23298029369E+02  0.21276402032E+03  0.25813694471E+03  0.13169197710E+03 0.  0.
         25    2    3    3    0    0 -0.58996431044E+02  0.23298029369E+02  0.23135355448E+03  0.26377900301E+03  0.10968827744E+03 0.  0.
          5    1    4    4  502    0  0.77969341891E+02 -0.35020101893E+00  0.50313357391E+02  0.92913211372E+02  0.47000000000E+01 0. -1.
         -5    1    4    4    0  502 -0.18972910847E+02 -0.22947828350E+02  0.16245066293E+03  0.16522373334E+03  0.47000000000E+01 0. -1.
          5    1    5    5  503    0  0.17784301389E+02 -0.17859657796E+02  0.13220830567E+02  0.28846648217E+02  0.47000000000E+01 0. -1.
         -5    1    5    5    0  503 -0.76780732433E+02  0.41157687165E+02  0.21813272391E+03  0.23493235479E+03  0.47000000000E+01 0. -1.
<mgrwt>
<rscale>  0 0.27414565E+03</rscale>
<asrwt>0</asrwt>
<pdfrwt beam="1">  1        2 0.59844906E-02 0.27414565E+03</pdfrwt>
<pdfrwt beam="2">  1       -2 0.74310266E-01 0.27414565E+03</pdfrwt>
<totfact> 0.20723253E+03</totfact>
</mgrwt>
</event>
<event>
 9    1  0.2098759E-002  0.2757250E+03  0.7818608E-02  0.1098047E+00
         -2   -1    0    0    0  501 -0.00000000000E+00  0.00000000000E+00  0.35735224512E+03  0.35735224512E+03  0.00000000000E+00 0. -1.
          2   -1    0    0  501    0  0.00000000000E+00 -0.00000000000E+00 -0.53185816552E+02  0.53185816552E+02  0.00000000000E+00 0. -1.
         36    2    1    2    0    0  0.35527136788E-14 -0.35527136788E-14  0.30416642857E+03  0.41053806168E+03  0.27572501485E+03 0.  0.
         25    2    3    3    0    0  0.12779436131E+02 -0.15704293814E+02  0.69027391721E+02  0.14281648560E+03  0.12337677626E+03 0.  0.
         25    2    3    3    0    0 -0.12779436131E+02  0.15704293814E+02  0.23513903685E+03  0.26772157607E+03  0.12639041423E+03 0.  0.
          5    1    4    4  502    0  0.28127501139E+02  0.64893267217E+01  0.98400267441E+02  0.10265461662E+03  0.47000000000E+01 0. -1.
         -5    1    4    4    0  502 -0.15348065008E+02 -0.22193620536E+02 -0.29372875720E+02  0.40161868981E+02  0.47000000000E+01 0. -1.
          5    1    5    5  503    0  0.56688324848E+02  0.72687177908E+01  0.11787174159E+03  0.13108103562E+03  0.47000000000E+01 0. -1.
         -5    1    5    5    0  503 -0.69467760978E+02  0.84355760236E+01  0.11726729526E+03  0.13664054045E+03  0.47000000000E+01 0. -1.
<mgrwt>
<rscale>  0 0.27572501E+03</rscale>
<asrwt>0</asrwt>
<pdfrwt beam="1">  1        2 0.81824336E-02 0.27572501E+03</pdfrwt>
<pdfrwt beam="2">  1       -2 0.54977267E-01 0.27572501E+03</pdfrwt>
<totfact> 0.26094566E+03</totfact>
</mgrwt>
</event>
<event>
 9    1  0.2098759E-002  0.2738344E+03  0.7818608E-02  0.1099105E+00
          3   -1    0    0  501    0  0.00000000000E+00  0.00000000000E+00  0.42680012526E+03  0.42680012526E+03  0.00000000000E+00 0.  1.
         -3   -1    0    0    0  501 -0.00000000000E+00 -0.00000000000E+00 -0.43922943285E+02  0.43922943285E+02  0.00000000000E+00 0.  1.
         36    2    1    2    0    0  0.71054273576E-14  0.00000000000E+00  0.38287718197E+03  0.47072306854E+03  0.27383438568E+03 0.  0.
         25    2    3    3    0    0  0.45969928239E+02  0.20091858919E+02  0.19919223566E+03  0.24152995460E+03  0.12705217480E+03 0.  0.
         25    2    3    3    0    0 -0.45969928239E+02 -0.20091858919E+02  0.18368494631E+03  0.22919311394E+03  0.12756334459E+03 0.  0.
          5    1    4    4  502    0  0.23272474128E+02  0.73162452212E+02  0.13245664573E+03  0.15317051108E+03  0.47000000000E+01 0. -1.
         -5    1    4    4    0  502  0.22697454111E+02 -0.53070593293E+02  0.66735589934E+02  0.88359443522E+02  0.47000000000E+01 0. -1.
          5    1    5    5  503    0 -0.56812394869E+02 -0.67267219548E+02  0.11143339311E+03  0.14209862116E+03  0.47000000000E+01 0.  1.
         -5    1    5    5    0  503  0.10842466630E+02  0.47175360629E+02  0.72251553200E+02  0.87094492782E+02  0.47000000000E+01 0.  1.
<mgrwt>
<rscale>  0 0.27383439E+03</rscale>
<asrwt>0</asrwt>
<pdfrwt beam="1">  1        3 0.65661555E-01 0.27383439E+03</pdfrwt>
<pdfrwt beam="2">  1       -3 0.67573762E-02 0.27383439E+03</pdfrwt>
<totfact> 0.81397260E+02</totfact>
</mgrwt>
</event>
<event>
 9    1  0.2098759E-002  0.2746000E+03  0.7818608E-02  0.1098675E+00
         -1   -1    0    0    0  501 -0.00000000000E+00  0.00000000000E+00  0.95793685300E+02  0.95793685300E+02  0.00000000000E+00 0. -1.
          1   -1    0    0  501    0  0.00000000000E+00 -0.00000000000E+00 -0.19679052890E+03  0.19679052890E+03  0.00000000000E+00 0. -1.
         36    2    1    2    0    0  0.00000000000E+00 -0.71054273576E-14 -0.10099684360E+03  0.29258421420E+03  0.27459999996E+03 0.  0.
         25    2    3    3    0    0 -0.37093041064E+02 -0.42325557238E+02 -0.66188364162E+02  0.15170213718E+03  0.12435952872E+03 0.  0.
         25    2    3    3    0    0  0.37093041064E+02  0.42325557238E+02 -0.34808479435E+02  0.14088207702E+03  0.12437356187E+03 0.  0.
          5    1    4    4  502    0 -0.11011698977E+02 -0.53613685705E+02  0.21812829333E+02  0.59106466082E+02  0.47000000000E+01 0. -1.
         -5    1    4    4    0  502 -0.26081342087E+02  0.11288128467E+02 -0.88001193495E+02  0.92595671097E+02  0.47000000000E+01 0. -1.
          5    1    5    5  503    0 -0.93566178305E+01  0.73253403436E+02  0.17238097171E+01  0.74018031129E+02  0.47000000000E+01 0. -1.
         -5    1    5    5    0  503  0.46449658895E+02 -0.30927846199E+02 -0.36532289152E+02  0.66864045888E+02  0.47000000000E+01 0. -1.
<mgrwt>
<rscale>  0 0.27460000E+03</rscale>
<asrwt>0</asrwt>
<pdfrwt beam="1">  1        1 0.30275466E-01 0.27460000E+03</pdfrwt>
<pdfrwt beam="2">  1       -1 0.14737490E-01 0.27460000E+03</pdfrwt>
<totfact> 0.49156863E+03</totfact>
</mgrwt>
</event>
<event>
 9    1  0.2098759E-002  0.2748725E+03  0.7818608E-02  0.1098523E+00
          2   -1    0    0  501    0  0.00000000000E+00  0.00000000000E+00  0.80747933646E+03  0.80747933646E+03  0.00000000000E+00 0. -1.
         -2   -1    0    0    0  501 -0.00000000000E+00 -0.00000000000E+00 -0.23392203803E+02  0.23392203803E+02  0.00000000000E+00 0. -1.
         36    2    1    2    0    0 -0.71054273576E-14  0.00000000000E+00  0.78408713266E+03  0.83087154026E+03  0.27487248829E+03 0.  0.
         25    2    3    3    0    0 -0.36083219087E+02 -0.25745369889E+02  0.28689221952E+03  0.31679350434E+03  0.12683121066E+03 0.  0.
         25    2    3    3    0    0  0.36083219087E+02  0.25745369889E+02  0.49719491313E+03  0.51407803592E+03  0.12291713714E+03 0.  0.
          5    1    4    4  502    0 -0.13052253746E+02 -0.75368535728E+02  0.19796176199E+03  0.21227747576E+03  0.47000000000E+01 0. -1.
         -5    1    4    4    0  502 -0.23030965341E+02  0.49623165839E+02  0.88930457533E+02  0.10451602858E+03  0.47000000000E+01 0. -1.
          5    1    5    5  503    0  0.75154806443E+02  0.44056572694E+02  0.32800394900E+03  0.33940817181E+03  0.47000000000E+01 0.  1.
         -5    1    5    5    0  503 -0.39071587356E+02 -0.18311202805E+02  0.16919096413E+03  0.17466986412E+03  0.47000000000E+01 0.  1.
<mgrwt>
<rscale>  0 0.27487249E+03</rscale>
<asrwt>0</asrwt>
<pdfrwt beam="1">  1        2 0.12422757E+00 0.27487249E+03</pdfrwt>
<pdfrwt beam="2">  1       -2 0.35988012E-02 0.27487249E+03</pdfrwt>
<totfact> 0.11260938E+04</totfact>
</mgrwt>
</event>
<event>
 9    1  0.2098759E-002  0.2747547E+03  0.7818608E-02  0.1098589E+00
          1   -1    0    0  501    0  0.00000000000E+00  0.00000000000E+00  0.82857700000E+03  0.82857700000E+03  0.00000000000E+00 0.  1.
         -1   -1    0    0    0  501 -0.00000000000E+00 -0.00000000000E+00 -0.22777045178E+02  0.22777045178E+02  0.00000000000E+00 0.  1.
         36    2    1    2    0    0  0.00000000000E+00  0.35527136788E-14  0.80579995483E+03  0.85135404518E+03  0.27475469614E+03 0.  0.
         25    2    3    3    0    0 -0.14294045914E+02  0.12200409312E+02  0.25251686295E+03  0.28185788297E+03  0.12379794176E+03 0.  0.
         25    2    3    3    0    0  0.14294045914E+02 -0.12200409312E+02  0.55328309188E+03  0.56949616221E+03  0.13360587291E+03 0.  0.
          5    1    4    4  502    0 -0.74732012942E+01  0.51139689602E+02  0.23069236229E+03  0.23645754928E+03  0.47000000000E+01 0. -1.
         -5    1    4    4    0  502 -0.68208446198E+01 -0.38939280289E+02  0.21824500655E+02  0.45400333695E+02  0.47000000000E+01 0. -1.
          5    1    5    5  503    0 -0.26286889360E+02  0.31925131598E+02  0.62796860066E+02  0.75337575047E+02  0.47000000000E+01 0.  1.
         -5    1    5    5    0  503  0.40580935274E+02 -0.44125540910E+02  0.49048623182E+03  0.49415858716E+03  0.47000000000E+01 0.  1.
<mgrwt>
<rscale>  0 0.27475470E+03</rscale>
<asrwt>0</asrwt>
<pdfrwt beam="1">  1        1 0.12747336E+00 0.27475470E+03</pdfrwt>
<pdfrwt beam="2">  1       -1 0.35041614E-02 0.27475470E+03</pdfrwt>
<totfact> 0.65220164E+03</totfact>
</mgrwt>
</event>
<event>
 9    1  0.2098759E-002  0.2747790E+03  0.7818608E-02  0.1098575E+00
          2   -1    0    0  501    0  0.00000000000E+00  0.00000000000E+00  0.18199193338E+03  0.18199193338E+03  0.00000000000E+00 0.  1.
         -2   -1    0    0    0  501 -0.00000000000E+00 -0.00000000000E+00 -0.10371821329E+03  0.10371821329E+03  0.00000000000E+00 0.  1.
         36    2    1    2    0    0  0.00000000000E+00  0.00000000000E+00  0.78273720086E+02  0.28571014666E+03  0.27477902513E+03 0.  0.
         25    2    3    3    0    0 -0.13965957504E+02 -0.55628268148E+02  0.22951488699E+02  0.13689480918E+03  0.12216327501E+03 0.  0.
         25    2    3    3    0    0  0.13965957504E+02  0.55628268148E+02  0.55322231387E+02  0.14881533749E+03  0.12568175364E+03 0.  0.
          5    1    4    4  502    0 -0.65198363457E+01 -0.34315099477E+02 -0.49554864849E+02  0.60809612301E+02  0.47000000000E+01 0. -1.
         -5    1    4    4    0  502 -0.74461211587E+01 -0.21313168672E+02  0.72506353547E+02  0.76085196877E+02  0.47000000000E+01 0. -1.
          5    1    5    5  503    0 -0.36317834212E+02  0.22757426725E+02 -0.23887105703E+02  0.49290662116E+02  0.47000000000E+01 0.  1.
         -5    1    5    5    0  503  0.50283791716E+02  0.32870841424E+02  0.79209337090E+02  0.99524675370E+02  0.47000000000E+01 0.  1.
<mgrwt>
<rscale>  0 0.27477903E+03</rscale>
<asrwt>0</asrwt>
<pdfrwt beam="1">  1        2 0.27998759E-01 0.27477903E+03</pdfrwt>
<pdfrwt beam="2">  1       -2 0.15956648E-01 0.27477903E+03</pdfrwt>
<totfact> 0.58028683E+03</totfact>
</mgrwt>
</event>
<event>
 9    1  0.2098759E-002  0.2756625E+03  0.7818608E-02  0.1098082E+00
         -2   -1    0    0    0  501 -0.00000000000E+00  0.00000000000E+00  0.31515353410E+02  0.31515353410E+02  0.00000000000E+00 0.  1.
          2   -1    0    0  501    0  0.00000000000E+00 -0.00000000000E+00 -0.60280000136E+03  0.60280000136E+03  0.00000000000E+00 0.  1.
         36    2    1    2    0    0  0.00000000000E+00  0.00000000000E+00 -0.57128464795E+03  0.63431535477E+03  0.27566251162E+03 0.  0.
         25    2    3    3    0    0 -0.10028519245E+02  0.58111785929E+02 -0.30751035683E+03  0.33650772793E+03  0.12327725071E+03 0.  0.
         25    2    3    3    0    0  0.10028519245E+02 -0.58111785929E+02 -0.26377429112E+03  0.29780762683E+03  0.12503981398E+03 0.  0.
          5    1    4    4  502    0  0.48550069303E+02  0.59064597237E+02 -0.19640003334E+03  0.21080986451E+03  0.47000000000E+01 0.  1.
         -5    1    4    4    0  502 -0.58578588548E+02 -0.95281130761E+00 -0.11111032348E+03  0.12569786343E+03  0.47000000000E+01 0.  1.
          5    1    5    5  503    0 -0.44641391877E+02 -0.32104634814E+02 -0.46369106167E+02  0.72081519490E+02  0.47000000000E+01 0. -1.
         -5    1    5    5    0  503  0.54669911122E+02 -0.26007151115E+02 -0.21740518495E+03  0.22572610734E+03  0.47000000000E+01 0. -1.
<mgrwt>
<rscale>  0 0.27566251E+03</rscale>
<asrwt>0</asrwt>
<pdfrwt beam="1">  1        2 0.92738458E-01 0.27566251E+03</pdfrwt>
<pdfrwt beam="2">  1       -2 0.48485161E-02 0.27566251E+03</pdfrwt>
<totfact> 0.10250564E+04</totfact>
</mgrwt>
</event>
<event>
 9    1  0.2098759E-002  0.2750369E+03  0.7818608E-02  0.1098431E+00
         -2   -1    0    0    0  501 -0.00000000000E+00  0.00000000000E+00  0.76680965834E+02  0.76680965834E+02  0.00000000000E+00 0. -1.
          2   -1    0    0  501    0  0.00000000000E+00 -0.00000000000E+00 -0.24662340273E+03  0.24662340273E+03  0.00000000000E+00 0. -1.
         36    2    1    2    0    0  0.00000000000E+00  0.71054273576E-14 -0.16994243690E+03  0.32330436857E+03  0.27503687548E+03 0.  0.
         25    2    3    3    0    0  0.26967836382E+02  0.34372433615E+02 -0.93201491484E+02  0.16288109082E+03  0.12623392310E+03 0.  0.
         25    2    3    3    0    0 -0.26967836382E+02 -0.34372433615E+02 -0.76740945414E+02  0.16042327774E+03  0.13393179961E+03 0.  0.
          5    1    4    4  502    0  0.65167363466E+02 -0.18266688165E+02 -0.40271809665E+02  0.78894650080E+02  0.47000000000E+01 0. -1.
         -5    1    4    4    0  502 -0.38199527084E+02  0.52639121779E+02 -0.52929681819E+02  0.83986440742E+02  0.47000000000E+01 0. -1.
          5    1    5    5  503    0  0.50290355037E+02 -0.38280775663E+02 -0.34231700191E+02  0.72030805167E+02  0.47000000000E+01 0.  1.
         -5    1    5    5    0  503 -0.77258191419E+02  0.39083420479E+01 -0.42509245223E+02  0.88392472577E+02  0.47000000000E+01 0.  1.
<mgrwt>
<rscale>  0 0.27503688E+03</rscale>
<asrwt>0</asrwt>
<pdfrwt beam="1">  1        2 0.37942063E-01 0.27503688E+03</pdfrwt>
<pdfrwt beam="2">  1       -2 0.11797071E-01 0.27503688E+03</pdfrwt>
<totfact> 0.68285256E+03</totfact>
</mgrwt>
</event>
<event>
 9    1  0.2098759E-002  0.2749262E+03  0.7818608E-02  0.1098493E+00
          2   -1    0    0  501    0  0.00000000000E+00  0.00000000000E+00  0.53241756528E+03  0.53241756528E+03  0.00000000000E+00 0. -1.
         -2   -1    0    0    0  501 -0.00000000000E+00 -0.00000000000E+00 -0.35491125900E+02  0.35491125900E+02  0.00000000000E+00 0. -1.
         36    2    1    2    0    0  0.00000000000E+00 -0.35527136788E-14  0.49692643938E+03  0.56790869118E+03  0.27492616347E+03 0.  0.
         25    2    3    3    0    0 -0.27329830141E+02 -0.39444780660E+01  0.35505136306E+03  0.37843378602E+03  0.12801633280E+03 0.  0.
         25    2    3    3    0    0  0.27329830141E+02  0.39444780660E+01  0.14187507632E+03  0.18947490516E+03  0.12251417830E+03 0.  0.
          5    1    4    4  502    0  0.22850416888E+02 -0.35851920703E+02  0.27655968233E+03  0.27984790451E+03  0.47000000000E+01 0. -1.
         -5    1    4    4    0  502 -0.50180247029E+02  0.31907442637E+02  0.78491680732E+02  0.98585881502E+02  0.47000000000E+01 0. -1.
          5    1    5    5  503    0 -0.17631285113E+02  0.54236533142E+02  0.75336390597E+02  0.94605102876E+02  0.47000000000E+01 0.  1.
         -5    1    5    5    0  503  0.44961115254E+02 -0.50292055076E+02  0.66538685722E+02  0.94869802289E+02  0.47000000000E+01 0.  1.
<mgrwt>
<rscale>  0 0.27492616E+03</rscale>
<asrwt>0</asrwt>
<pdfrwt beam="1">  1        2 0.81910389E-01 0.27492616E+03</pdfrwt>
<pdfrwt beam="2">  1       -2 0.54601736E-02 0.27492616E+03</pdfrwt>
<totfact> 0.98626193E+03</totfact>
</mgrwt>
</event>
<event>
 9    1  0.2098759E-002  0.2817390E+03  0.7818608E-02  0.1094743E+00
          3   -1    0    0  501    0  0.00000000000E+00  0.00000000000E+00  0.25864101486E+03  0.25864101486E+03  0.00000000000E+00 0.  1.
         -3   -1    0    0    0  501 -0.00000000000E+00 -0.00000000000E+00 -0.76724923391E+02  0.76724923391E+02  0.00000000000E+00 0.  1.
         36    2    1    2    0    0 -0.35527136788E-14  0.00000000000E+00  0.18191609147E+03  0.33536593825E+03  0.28173897175E+03 0.  0.
         25    2    3    3    0    0  0.19067528358E+02 -0.52721690111E+02  0.97940650513E+02  0.17203643602E+03  0.12984997901E+03 0.  0.
         25    2    3    3    0    0 -0.19067528358E+02  0.52721690111E+02  0.83975440960E+02  0.16332950223E+03  0.12838031146E+03 0.  0.
          5    1    4    4  502    0  0.26016284417E+02 -0.90062333085E+02  0.95163063172E+02  0.13366439125E+03  0.47000000000E+01 0. -1.
         -5    1    4    4    0  502 -0.69487560587E+01  0.37340642973E+02  0.27775873401E+01  0.38372044770E+02  0.47000000000E+01 0. -1.
          5    1    5    5  503    0  0.21668660672E+02 -0.31182134514E+02  0.52122592789E+02  0.64658418223E+02  0.47000000000E+01 0. -1.
         -5    1    5    5    0  503 -0.40736189030E+02  0.83903824625E+02  0.31852848171E+02  0.98671084012E+02  0.47000000000E+01 0. -1.
<mgrwt>
<rscale>  0 0.28173897E+03</rscale>
<asrwt>0</asrwt>
<pdfrwt beam="1">  1        3 0.39790925E-01 0.28173897E+03</pdfrwt>
<pdfrwt beam="2">  1       -3 0.11803835E-01 0.28173897E+03</pdfrwt>
<totfact> 0.89362613E+02</totfact>
</mgrwt>
</event>
<event>
 9    1  0.2098759E-002  0.2746270E+03  0.7818608E-02  0.1098660E+00
         -1   -1    0    0    0  501 -0.00000000000E+00  0.00000000000E+00  0.39233322985E+02  0.39233322985E+02  0.00000000000E+00 0. -1.
          1   -1    0    0  501    0  0.00000000000E+00 -0.00000000000E+00 -0.48058628118E+03  0.48058628118E+03  0.00000000000E+00 0. -1.
         36    2    1    2    0    0 -0.71054273576E-14  0.00000000000E+00 -0.44135295820E+03  0.51981960417E+03  0.27462699643E+03 0.  0.
         25    2    3    3    0    0 -0.45994354798E+02  0.32120796423E+02 -0.26728662876E+03  0.30016562719E+03  0.12453929338E+03 0.  0.
         25    2    3    3    0    0  0.45994354798E+02 -0.32120796423E+02 -0.17406632944E+03  0.21965397698E+03  0.12166164688E+03 0.  0.
          5    1    4    4  502    0  0.27413164384E+02 -0.65700033376E+01 -0.16922245927E+03  0.17161869725E+03  0.47000000000E+01 0.  1.
         -5    1    4    4    0  502 -0.73407519182E+02  0.38690799761E+02 -0.98064169491E+02  0.12854692994E+03  0.47000000000E+01 0.  1.
          5    1    5    5  503    0  0.21724245812E+02  0.43748281043E+02 -0.38600000426E+02  0.62433204172E+02  0.47000000000E+01 0.  1.
         -5    1    5    5    0  503  0.24270108986E+02 -0.75869077466E+02 -0.13546632901E+03  0.15722077281E+03  0.47000000000E+01 0.  1.
<mgrwt>
<rscale>  0 0.27462700E+03</rscale>
<asrwt>0</asrwt>
<pdfrwt beam="1">  1        1 0.73936353E-01 0.27462700E+03</pdfrwt>
<pdfrwt beam="2">  1       -1 0.60358957E-02 0.27462700E+03</pdfrwt>
<totfact> 0.62726155E+03</totfact>
</mgrwt>
</event>
<event>
 9    1  0.2098759E-002  0.2746312E+03  0.7818608E-02  0.1098658E+00
          1   -1    0    0  501    0  0.00000000000E+00  0.00000000000E+00  0.22807286268E+04  0.22807286268E+04  0.00000000000E+00 0.  1.
         -1   -1    0    0    0  501 -0.00000000000E+00 -0.00000000000E+00 -0.82673443276E+01  0.82673443276E+01  0.00000000000E+00 0.  1.
         36    2    1    2    0    0  0.71054273576E-14 -0.35527136788E-14  0.22724612825E+04  0.22889959711E+04  0.27463116266E+03 0.  0.
         25    2    3    3    0    0  0.22552149686E+02  0.23694122710E+02  0.74281895860E+03  0.75408277455E+03  0.12566150846E+03 0.  0.
         25    2    3    3    0    0 -0.22552149686E+02 -0.23694122710E+02  0.15296423239E+04  0.15349131966E+04  0.12281234119E+03 0.  0.
          5    1    4    4  502    0 -0.36157812659E+02 -0.19977548291E+02  0.46137702309E+03  0.46324651891E+03  0.47000000000E+01 0. -1.
         -5    1    4    4    0  502  0.58709962344E+02  0.43671671000E+02  0.28144193551E+03  0.29083625564E+03  0.47000000000E+01 0. -1.
          5    1    5    5  503    0  0.23677722710E+02 -0.28522781037E+02  0.15366507513E+03  0.15814306468E+03  0.47000000000E+01 0.  1.
         -5    1    5    5    0  503 -0.46229872396E+02  0.48286583274E+01  0.13759772487E+04  0.13767701319E+04  0.47000000000E+01 0.  1.
<mgrwt>
<rscale>  0 0.27463116E+03</rscale>
<asrwt>0</asrwt>
<pdfrwt beam="1">  1        1 0.35088083E+00 0.27463116E+03</pdfrwt>
<pdfrwt beam="2">  1       -1 0.12719009E-02 0.27463116E+03</pdfrwt>
<totfact> 0.29367959E+03</totfact>
</mgrwt>
</event>
<event>
 9    1  0.2098759E-002  0.2747412E+03  0.7818608E-02  0.1098596E+00
         -3   -1    0    0    0  501 -0.00000000000E+00  0.00000000000E+00  0.46345025325E+02  0.46345025325E+02  0.00000000000E+00 0. -1.
          3   -1    0    0  501    0  0.00000000000E+00 -0.00000000000E+00 -0.40717827235E+03  0.40717827235E+03  0.00000000000E+00 0. -1.
         36    2    1    2    0    0 -0.17763568394E-14  0.00000000000E+00 -0.36083324703E+03  0.45352329768E+03  0.27474124076E+03 0.  0.
         25    2    3    3    0    0 -0.14496046303E+02 -0.19150990769E+02 -0.99272843137E+02  0.16219113043E+03  0.12599194259E+03 0.  0.
         25    2    3    3    0    0  0.14496046303E+02  0.19150990769E+02 -0.26156040389E+03  0.29133216725E+03  0.12603051609E+03 0.  0.
          5    1    4    4  502    0  0.90307526680E+01 -0.62633644321E+02 -0.16339887454E+02  0.65525642437E+02  0.47000000000E+01 0.  1.
         -5    1    4    4    0  502 -0.23526798971E+02  0.43482653553E+02 -0.82932955683E+02  0.96665487989E+02  0.47000000000E+01 0.  1.
          5    1    5    5  503    0  0.14278556272E+01 -0.40465834867E+02 -0.20147593823E+03  0.20555818215E+03  0.47000000000E+01 0. -1.
         -5    1    5    5    0  503  0.13068190676E+02  0.59616825635E+02 -0.60084465654E+02  0.85773985097E+02  0.47000000000E+01 0. -1.
<mgrwt>
<rscale>  0 0.27474124E+03</rscale>
<asrwt>0</asrwt>
<pdfrwt beam="1">  1        3 0.62642810E-01 0.27474124E+03</pdfrwt>
<pdfrwt beam="2">  1       -3 0.71300040E-02 0.27474124E+03</pdfrwt>
<totfact> 0.82380728E+02</totfact>
</mgrwt>
</event>
<event>
 9    1  0.2098759E-002  0.2752625E+03  0.7818608E-02  0.1098305E+00
         -1   -1    0    0    0  501 -0.00000000000E+00  0.00000000000E+00  0.19656515450E+02  0.19656515450E+02  0.00000000000E+00 0. -1.
          1   -1    0    0  501    0  0.00000000000E+00 -0.00000000000E+00 -0.96366861962E+03  0.96366861962E+03  0.00000000000E+00 0. -1.
         36    2    1    2    0    0 -0.14210854715E-13 -0.35527136788E-14 -0.94401210417E+03  0.98332513507E+03  0.27526254457E+03 0.  0.
         25    2    3    3    0    0  0.25884188968E+02  0.25781641331E+02 -0.52933492183E+03  0.54878401462E+03  0.14012048734E+03 0.  0.
         25    2    3    3    0    0 -0.25884188968E+02 -0.25781641331E+02 -0.41467718234E+03  0.43454112044E+03  0.12463601219E+03 0.  0.
          5    1    4    4  502    0 -0.58140093505E+02  0.10229072033E+02 -0.21855692263E+03  0.22643790057E+03  0.47000000000E+01 0.  1.
         -5    1    4    4    0  502  0.84024282473E+02  0.15552569299E+02 -0.31077799920E+03  0.32234611405E+03  0.47000000000E+01 0.  1.
          5    1    5    5  503    0 -0.62843047557E+02 -0.52828688495E+02 -0.29713877025E+03  0.30830773221E+03  0.47000000000E+01 0. -1.
         -5    1    5    5    0  503  0.36958858589E+02  0.27047047164E+02 -0.11753841208E+03  0.12623338823E+03  0.47000000000E+01 0. -1.
<mgrwt>
<rscale>  0 0.27526254E+03</rscale>
<asrwt>0</asrwt>
<pdfrwt beam="1">  1        1 0.14825668E+00 0.27526254E+03</pdfrwt>
<pdfrwt beam="2">  1       -1 0.30240799E-02 0.27526254E+03</pdfrwt>
<totfact> 0.63463484E+03</totfact>
</mgrwt>
</event>
<event>
 9    1  0.2098759E-002  0.2733498E+03  0.7818608E-02  0.1099378E+00
         -1   -1    0    0    0  501 -0.00000000000E+00  0.00000000000E+00  0.50839833601E+02  0.50839833601E+02  0.00000000000E+00 0. -1.
          1   -1    0    0  501    0  0.00000000000E+00 -0.00000000000E+00 -0.36742897892E+03  0.36742897892E+03  0.00000000000E+00 0. -1.
         36    2    1    2    0    0  0.17763568394E-14  0.00000000000E+00 -0.31658914532E+03  0.41826881252E+03  0.27334979896E+03 0.  0.
         25    2    3    3    0    0 -0.20573911028E+01  0.36422209413E+02 -0.10105840435E+03  0.16786653805E+03  0.12897892584E+03 0.  0.
         25    2    3    3    0    0  0.20573911028E+01 -0.36422209413E+02 -0.21553074096E+03  0.25040227446E+03  0.12213512419E+03 0.  0.
          5    1    4    4  502    0  0.55480646071E+02  0.73566566295E+01 -0.83954011489E+02  0.10100786371E+03  0.47000000000E+01 0.  1.
         -5    1    4    4    0  502 -0.57538037174E+02  0.29065552784E+02 -0.17104392863E+02  0.66858674349E+02  0.47000000000E+01 0.  1.
          5    1    5    5  503    0 -0.14683723449E+02 -0.39544555259E+02 -0.93440922018E+01  0.43460161574E+02  0.47000000000E+01 0. -1.
         -5    1    5    5    0  503  0.16741114552E+02  0.31223458452E+01 -0.20618664876E+03  0.20694211289E+03  0.47000000000E+01 0. -1.
<mgrwt>
<rscale>  0 0.27334980E+03</rscale>
<asrwt>0</asrwt>
<pdfrwt beam="1">  1        1 0.56527534E-01 0.27334980E+03</pdfrwt>
<pdfrwt beam="2">  1       -1 0.78215130E-02 0.27334980E+03</pdfrwt>
<totfact> 0.59884283E+03</totfact>
</mgrwt>
</event>
<event>
 9    1  0.2098759E-002  0.2748108E+03  0.7818608E-02  0.1098557E+00
          1   -1    0    0  501    0  0.00000000000E+00  0.00000000000E+00  0.33622652165E+04  0.33622652165E+04  0.00000000000E+00 0. -1.
         -1   -1    0    0    0  501 -0.00000000000E+00 -0.00000000000E+00 -0.56153344891E+01  0.56153344891E+01  0.00000000000E+00 0. -1.
         36    2    1    2    0    0  0.00000000000E+00  0.00000000000E+00  0.33566498820E+04  0.33678805510E+04  0.27481079915E+03 0.  0.
         25    2    3    3    0    0 -0.36729428630E+02  0.27648054561E+02  0.16179713085E+04  0.16240486637E+04  0.13262518942E+03 0.  0.
         25    2    3    3    0    0  0.36729428630E+02 -0.27648054561E+02  0.17386785735E+04  0.17438318873E+04  0.12582926340E+03 0.  0.
          5    1    4    4  502    0 -0.54263445975E+02  0.65682608126E+02  0.13584906333E+04  0.13611677403E+04  0.47000000000E+01 0. -1.
         -5    1    4    4    0  502  0.17534017344E+02 -0.38034553565E+02  0.25948067526E+03  0.26288092335E+03  0.47000000000E+01 0. -1.
          5    1    5    5  503    0  0.42596987370E+02 -0.71766918588E+01  0.18630453232E+03  0.19130467063E+03  0.47000000000E+01 0.  1.
         -5    1    5    5    0  503 -0.58675587400E+01 -0.20471362702E+02  0.15523740412E+04  0.15525272167E+04  0.47000000000E+01 0.  1.
<mgrwt>
<rscale>  0 0.27481080E+03</rscale>
<asrwt>0</asrwt>
<pdfrwt beam="1">  1        1 0.51726996E+00 0.27481080E+03</pdfrwt>
<pdfrwt beam="2">  1       -1 0.86390030E-03 0.27481080E+03</pdfrwt>
<totfact> 0.92414455E+02</totfact>
</mgrwt>
</event>
<event>
 9    1  0.2098759E-002  0.2754562E+03  0.7818608E-02  0.1098197E+00
         -2   -1    0    0    0  501 -0.00000000000E+00  0.00000000000E+00  0.48274243487E+02  0.48274243487E+02  0.00000000000E+00 0. -1.
          2   -1    0    0  501    0  0.00000000000E+00 -0.00000000000E+00 -0.39294308844E+03  0.39294308844E+03  0.00000000000E+00 0. -1.
         36    2    1    2    0    0  0.71054273576E-14  0.14210854715E-13 -0.34466884496E+03  0.44121733193E+03  0.27545620580E+03 0.  0.
         25    2    3    3    0    0  0.11335992567E+02 -0.35207779884E+02 -0.25040427763E+03  0.28232737277E+03  0.12505339127E+03 0.  0.
         25    2    3    3    0    0 -0.11335992567E+02  0.35207779884E+02 -0.94264567327E+02  0.15888995916E+03  0.12244230469E+03 0.  0.
          5    1    4    4  502    0 -0.43344868707E+02 -0.46792127531E+02 -0.77110803883E+02  0.10018206884E+03  0.47000000000E+01 0.  1.
         -5    1    4    4    0  502  0.54680861274E+02  0.11584347647E+02 -0.17329347375E+03  0.18214530393E+03  0.47000000000E+01 0.  1.
          5    1    5    5  503    0 -0.36258075254E+02  0.20199702716E+02 -0.11533296120E+03  0.12266400429E+03  0.47000000000E+01 0. -1.
         -5    1    5    5    0  503  0.24922082687E+02  0.15008077168E+02  0.21068393869E+02  0.36225954866E+02  0.47000000000E+01 0. -1.
<mgrwt>
<rscale>  0 0.27545621E+03</rscale>
<asrwt>0</asrwt>
<pdfrwt beam="1">  1        2 0.60452784E-01 0.27545621E+03</pdfrwt>
<pdfrwt beam="2">  1       -2 0.74268066E-02 0.27545621E+03</pdfrwt>
<totfact> 0.85922124E+03</totfact>
</mgrwt>
</event>
<event>
 9    1  0.2098759E-002  0.2832667E+03  0.7818608E-02  0.1093918E+00
         -2   -1    0    0    0  501 -0.00000000000E+00  0.00000000000E+00  0.26199422536E+02  0.26199422536E+02  0.00000000000E+00 0.  1.
          2   -1    0    0  501    0  0.00000000000E+00 -0.00000000000E+00 -0.76566578351E+03  0.76566578351E+03  0.00000000000E+00 0.  1.
         36    2    1    2    0    0  0.71054273576E-14  0.00000000000E+00 -0.73946636098E+03  0.79186520605E+03  0.28326666859E+03 0.  0.
         25    2    3    3    0    0 -0.20519307482E+02  0.63246065774E+02 -0.33089086745E+03  0.35970988582E+03  0.12442398878E+03 0.  0.
         25    2    3    3    0    0  0.20519307482E+02 -0.63246065774E+02 -0.40857549353E+03  0.43215532022E+03  0.12410954867E+03 0.  0.
          5    1    4    4  502    0 -0.43487905737E+02  0.20444788268E+01 -0.25799177219E+03  0.26168152850E+03  0.47000000000E+01 0. -1.
         -5    1    4    4    0  502  0.22968598256E+02  0.61201586947E+02 -0.72899095256E+02  0.98028357325E+02  0.47000000000E+01 0. -1.
          5    1    5    5  503    0 -0.19338020429E+02 -0.42776640200E+02 -0.36955439498E+03  0.37255380931E+03  0.47000000000E+01 0.  1.
         -5    1    5    5    0  503  0.39857327910E+02 -0.20469425575E+02 -0.39021098547E+02  0.59601510914E+02  0.47000000000E+01 0.  1.
<mgrwt>
<rscale>  0 0.28326667E+03</rscale>
<asrwt>0</asrwt>
<pdfrwt beam="1">  1        2 0.11779473E+00 0.28326667E+03</pdfrwt>
<pdfrwt beam="2">  1       -2 0.40306805E-02 0.28326667E+03</pdfrwt>
<totfact> 0.10169834E+04</totfact>
</mgrwt>
</event>
<event>
 9    1  0.2098759E-002  0.2750391E+03  0.7818608E-02  0.1098430E+00
          4   -1    0    0  501    0  0.00000000000E+00  0.00000000000E+00  0.40018739210E+02  0.40018739210E+02  0.00000000000E+00 0.  1.
         -4   -1    0    0    0  501 -0.00000000000E+00 -0.00000000000E+00 -0.47256913866E+03  0.47256913866E+03  0.00000000000E+00 0.  1.
         36    2    1    2    0    0  0.00000000000E+00 -0.71054273576E-14 -0.43255039945E+03  0.51258787787E+03  0.27503905991E+03 0.  0.
         25    2    3    3    0    0 -0.37059403070E+02  0.27462223130E+02 -0.18890535749E+03  0.23137860179E+03  0.12539238502E+03 0.  0.
         25    2    3    3    0    0  0.37059403070E+02 -0.27462223130E+02 -0.24364504196E+03  0.28120927608E+03  0.13262042613E+03 0.  0.
          5    1    4    4  502    0 -0.30047113740E+02  0.46356406688E+02 -0.16655246840E+02  0.57889832721E+02  0.47000000000E+01 0.  1.
         -5    1    4    4    0  502 -0.70122893308E+01 -0.18894183558E+02 -0.17225011065E+03  0.17348876907E+03  0.47000000000E+01 0.  1.
          5    1    5    5  503    0  0.56876458341E+02 -0.65988486656E+02 -0.20565921732E+03  0.22339922908E+03  0.47000000000E+01 0. -1.
         -5    1    5    5    0  503 -0.19817055271E+02  0.38526263525E+02 -0.37985824639E+02  0.57810047002E+02  0.47000000000E+01 0. -1.
<mgrwt>
<rscale>  0 0.27503906E+03</rscale>
<asrwt>0</asrwt>
<pdfrwt beam="1">  1        4 0.61567292E-02 0.27503906E+03</pdfrwt>
<pdfrwt beam="2">  1       -4 0.72702943E-01 0.27503906E+03</pdfrwt>
<totfact> 0.55955381E+02</totfact>
</mgrwt>
</event>
<event>
 9    1  0.2098759E-002  0.2746092E+03  0.7818608E-02  0.1098670E+00
         -1   -1    0    0    0  501 -0.00000000000E+00  0.00000000000E+00  0.65103515689E+02  0.65103515689E+02  0.00000000000E+00 0. -1.
          1   -1    0    0  501    0  0.00000000000E+00 -0.00000000000E+00 -0.28957818154E+03  0.28957818154E+03  0.00000000000E+00 0. -1.
         36    2    1    2    0    0  0.35527136788E-14  0.35527136788E-14 -0.22447466585E+03  0.35468169723E+03  0.27460923280E+03 0.  0.
         25    2    3    3    0    0 -0.26460231433E+02  0.31184626331E+01 -0.17620332640E+03  0.21712937390E+03  0.12404710443E+03 0.  0.
         25    2    3    3    0    0  0.26460231433E+02 -0.31184626331E+01 -0.48271339452E+02  0.13755232333E+03  0.12601845414E+03 0.  0.
          5    1    4    4  502    0 -0.37632801098E+02  0.43203014661E+01  0.22728473931E+01  0.38238051187E+02  0.47000000000E+01 0.  1.
         -5    1    4    4    0  502  0.11172569665E+02 -0.12018388330E+01 -0.17847617379E+03  0.17889132271E+03  0.47000000000E+01 0.  1.
          5    1    5    5  503    0 -0.12234939367E+02 -0.24309569842E+02  0.34166993852E+02  0.43933158276E+02  0.47000000000E+01 0.  1.
         -5    1    5    5    0  503  0.38695170801E+02  0.21191107209E+02 -0.82438333304E+02  0.93619165057E+02  0.47000000000E+01 0.  1.
<mgrwt>
<rscale>  0 0.27460923E+03</rscale>
<asrwt>0</asrwt>
<pdfrwt beam="1">  1        1 0.44550488E-01 0.27460923E+03</pdfrwt>
<pdfrwt beam="2">  1       -1 0.10015926E-01 0.27460923E+03</pdfrwt>
<totfact> 0.55347627E+03</totfact>
</mgrwt>
</event>
<event>
 9    1  0.2098759E-002  0.2748128E+03  0.7818608E-02  0.1098556E+00
         -1   -1    0    0    0  501 -0.00000000000E+00  0.00000000000E+00  0.56749113408E+02  0.56749113408E+02  0.00000000000E+00 0.  1.
          1   -1    0    0  501    0  0.00000000000E+00 -0.00000000000E+00 -0.33270150019E+03  0.33270150019E+03  0.00000000000E+00 0.  1.
         36    2    1    2    0    0  0.00000000000E+00  0.00000000000E+00 -0.27595238678E+03  0.38945061360E+03  0.27481277383E+03 0.  0.
         25    2    3    3    0    0 -0.13184077597E+02 -0.46883194799E+02 -0.18459404231E+03  0.22896658729E+03  0.12640760968E+03 0.  0.
         25    2    3    3    0    0  0.13184077597E+02  0.46883194799E+02 -0.91358344471E+02  0.16048402630E+03  0.12262512686E+03 0.  0.
          5    1    4    4  502    0  0.52136126484E+02 -0.41314633347E+02 -0.11710295276E+03  0.13476003176E+03  0.47000000000E+01 0. -1.
         -5    1    4    4    0  502 -0.65320204081E+02 -0.55685614519E+01 -0.67491089546E+02  0.94206555536E+02  0.47000000000E+01 0. -1.
          5    1    5    5  503    0 -0.41758283734E+02  0.49614338060E+02 -0.81734099770E+02  0.10444084386E+03  0.47000000000E+01 0.  1.
         -5    1    5    5    0  503  0.54942361330E+02 -0.27311432613E+01 -0.96242447012E+01  0.56043182441E+02  0.47000000000E+01 0.  1.
<mgrwt>
<rscale>  0 0.27481277E+03</rscale>
<asrwt>0</asrwt>
<pdfrwt beam="1">  1        1 0.51184845E-01 0.27481277E+03</pdfrwt>
<pdfrwt beam="2">  1       -1 0.87306330E-02 0.27481277E+03</pdfrwt>
<totfact> 0.57413488E+03</totfact>
</mgrwt>
</event>
<event>
 9    1  0.2098759E-002  0.2774526E+03  0.7818608E-02  0.1097088E+00
         -2   -1    0    0    0  501 -0.00000000000E+00  0.00000000000E+00  0.36347446728E+02  0.36347446728E+02  0.00000000000E+00 0. -1.
          2   -1    0    0  501    0  0.00000000000E+00 -0.00000000000E+00 -0.52947290252E+03  0.52947290252E+03  0.00000000000E+00 0. -1.
         36    2    1    2    0    0  0.71054273576E-14  0.35527136788E-14 -0.49312545579E+03  0.56582034924E+03  0.27745261302E+03 0.  0.
         25    2    3    3    0    0 -0.39680924345E+02  0.31249253230E+02 -0.39386518738E+03  0.41734675507E+03  0.12844234721E+03 0.  0.
         25    2    3    3    0    0  0.39680924345E+02 -0.31249253230E+02 -0.99260268410E+02  0.14847359417E+03  0.98187146290E+02 0.  0.
          5    1    4    4  502    0 -0.19528286906E+02  0.37852189646E+02 -0.28786878934E+02  0.51622830698E+02  0.47000000000E+01 0.  1.
         -5    1    4    4    0  502 -0.20152637438E+02 -0.66029364156E+01 -0.36507830844E+03  0.36572392438E+03  0.47000000000E+01 0.  1.
          5    1    5    5  503    0 -0.23286801634E+02  0.88015751130E+01 -0.57488606542E+02  0.62823345477E+02  0.47000000000E+01 0. -1.
         -5    1    5    5    0  503  0.62967725978E+02 -0.40050828343E+02 -0.41771661868E+02  0.85650248692E+02  0.47000000000E+01 0. -1.
<mgrwt>
<rscale>  0 0.27745261E+03</rscale>
<asrwt>0</asrwt>
<pdfrwt beam="1">  1        2 0.81457368E-01 0.27745261E+03</pdfrwt>
<pdfrwt beam="2">  1       -2 0.55919150E-02 0.27745261E+03</pdfrwt>
<totfact> 0.95731042E+03</totfact>
</mgrwt>
</event>
<event>
 9    1  0.2098759E-002  0.2766637E+03  0.7818608E-02  0.1097525E+00
          1   -1    0    0  501    0  0.00000000000E+00  0.00000000000E+00  0.42939304856E+03  0.42939304856E+03  0.00000000000E+00 0. -1.
         -1   -1    0    0    0  501 -0.00000000000E+00 -0.00000000000E+00 -0.44564538802E+02  0.44564538802E+02  0.00000000000E+00 0. -1.
         36    2    1    2    0    0  0.71054273576E-14  0.00000000000E+00  0.38482850975E+03  0.47395758736E+03  0.27666371771E+03 0.  0.
         25    2    3    3    0    0 -0.48503726106E+02  0.24858434612E-01  0.23152093542E+03  0.27036891314E+03  0.13093812885E+03 0.  0.
         25    2    3    3    0    0  0.48503726106E+02 -0.24858434612E-01  0.15330757433E+03  0.20358867422E+03  0.12487002787E+03 0.  0.
          5    1    4    4  502    0 -0.87001796379E+02 -0.14132720255E+02  0.10441014665E+03  0.13672093870E+03  0.47000000000E+01 0. -1.
         -5    1    4    4    0  502  0.38498070273E+02  0.14157578690E+02  0.12711078877E+03  0.13364797444E+03  0.47000000000E+01 0. -1.
          5    1    5    5  503    0  0.58562417644E+02 -0.40869084146E+02  0.38583527501E+02  0.81305703328E+02  0.47000000000E+01 0.  1.
         -5    1    5    5    0  503 -0.10058691539E+02  0.40844225711E+02  0.11472404683E+03  0.12228297089E+03  0.47000000000E+01 0.  1.
<mgrwt>
<rscale>  0 0.27666372E+03</rscale>
<asrwt>0</asrwt>
<pdfrwt beam="1">  1        1 0.66060466E-01 0.27666372E+03</pdfrwt>
<pdfrwt beam="2">  1       -1 0.68560832E-02 0.27666372E+03</pdfrwt>
<totfact> 0.59940891E+03</totfact>
</mgrwt>
</event>
<event>
 9    1  0.2098759E-002  0.2743261E+03  0.7818608E-02  0.1098829E+00
         -1   -1    0    0    0  501 -0.00000000000E+00  0.00000000000E+00  0.30436761417E+02  0.30436761417E+02  0.00000000000E+00 0.  1.
          1   -1    0    0  501    0  0.00000000000E+00 -0.00000000000E+00 -0.61812431558E+03  0.61812431558E+03  0.00000000000E+00 0.  1.
         36    2    1    2    0    0 -0.35527136788E-14  0.00000000000E+00 -0.58768755416E+03  0.64856107700E+03  0.27432610025E+03 0.  0.
         25    2    3    3    0    0 -0.21773969527E+00  0.45166229771E+02 -0.39965671236E+03  0.41836016727E+03  0.11515079721E+03 0.  0.
         25    2    3    3    0    0  0.21773969527E+00 -0.45166229771E+02 -0.18803084180E+03  0.23020090973E+03  0.12488725175E+03 0.  0.
          5    1    4    4  502    0  0.16984034746E+02 -0.15780858058E+02 -0.13953127794E+02  0.27464025425E+02  0.47000000000E+01 0.  1.
         -5    1    4    4    0  502 -0.17201774442E+02  0.60947087828E+02 -0.38570358457E+03  0.39089614184E+03  0.47000000000E+01 0.  1.
          5    1    5    5  503    0 -0.55369772188E+02 -0.45235450613E+02 -0.72641650079E+02  0.10203409720E+03  0.47000000000E+01 0.  1.
         -5    1    5    5    0  503  0.55587511883E+02  0.69220842268E-01 -0.11538919172E+03  0.12816681253E+03  0.47000000000E+01 0.  1.
<mgrwt>
<rscale>  0 0.27432610E+03</rscale>
<asrwt>0</asrwt>
<pdfrwt beam="1">  1        1 0.95096050E-01 0.27432610E+03</pdfrwt>
<pdfrwt beam="2">  1       -1 0.46825786E-02 0.27432610E+03</pdfrwt>
<totfact> 0.65276573E+03</totfact>
</mgrwt>
</event>
<event>
 9    1  0.2098759E-002  0.2747259E+03  0.7818608E-02  0.1098605E+00
         -2   -1    0    0    0  501 -0.00000000000E+00  0.00000000000E+00  0.92728862374E+02  0.92728862374E+02  0.00000000000E+00 0. -1.
          2   -1    0    0  501    0  0.00000000000E+00 -0.00000000000E+00 -0.20348127099E+03  0.20348127099E+03  0.00000000000E+00 0. -1.
         36    2    1    2    0    0 -0.71054273576E-14  0.00000000000E+00 -0.11075240862E+03  0.29621013336E+03  0.27472594907E+03 0.  0.
         25    2    3    3    0    0  0.22900259431E+02  0.33622873913E+02 -0.10368693749E+03  0.16415244986E+03  0.12058244589E+03 0.  0.
         25    2    3    3    0    0 -0.22900259431E+02 -0.33622873913E+02 -0.70654711228E+01  0.13205768350E+03  0.12543680225E+03 0.  0.
          5    1    4    4  502    0  0.53774448358E+02  0.46560659291E+02 -0.10868896965E+03  0.12998064631E+03  0.47000000000E+01 0.  1.
         -5    1    4    4    0  502 -0.30874188927E+02 -0.12937785378E+02  0.50020321601E+01  0.34171803554E+02  0.47000000000E+01 0.  1.
          5    1    5    5  503    0 -0.32460554498E+02 -0.20400594339E+02  0.55282036060E+02  0.67439345776E+02  0.47000000000E+01 0.  1.
         -5    1    5    5    0  503  0.95602950673E+01 -0.13222279574E+02 -0.62347507183E+02  0.64618337728E+02  0.47000000000E+01 0.  1.
<mgrwt>
<rscale>  0 0.27472595E+03</rscale>
<asrwt>0</asrwt>
<pdfrwt beam="1">  1        2 0.31304810E-01 0.27472595E+03</pdfrwt>
<pdfrwt beam="2">  1       -2 0.14265979E-01 0.27472595E+03</pdfrwt>
<totfact> 0.61771926E+03</totfact>
</mgrwt>
</event>
<event>
 9    1  0.2098759E-002  0.2736822E+03  0.7818608E-02  0.1099190E+00
         -2   -1    0    0    0  501 -0.00000000000E+00  0.00000000000E+00  0.43883422110E+02  0.43883422110E+02  0.00000000000E+00 0.  1.
          2   -1    0    0  501    0  0.00000000000E+00 -0.00000000000E+00 -0.42670996446E+03  0.42670996446E+03  0.00000000000E+00 0.  1.
         36    2    1    2    0    0  0.00000000000E+00 -0.71054273576E-14 -0.38282654235E+03  0.47059338657E+03  0.27368224998E+03 0.  0.
         25    2    3    3    0    0 -0.12332537570E+01  0.89670056612E+01 -0.28886240570E+03  0.31564440494E+03  0.12691718891E+03 0.  0.
         25    2    3    3    0    0  0.12332537570E+01 -0.89670056612E+01 -0.93964136654E+02  0.15494898163E+03  0.12287391841E+03 0.  0.
          5    1    4    4  502    0  0.26475258025E+02  0.60358571243E+02 -0.18438937864E+03  0.19587146133E+03  0.47000000000E+01 0.  1.
         -5    1    4    4    0  502 -0.27708511782E+02 -0.51391565581E+02 -0.10447302706E+03  0.11977294361E+03  0.47000000000E+01 0.  1.
          5    1    5    5  503    0 -0.30019499450E+02 -0.54191130569E+02 -0.73167905343E+02  0.95986881145E+02  0.47000000000E+01 0. -1.
         -5    1    5    5    0  503  0.31252753207E+02  0.45224124907E+02 -0.20796231311E+02  0.58962100483E+02  0.47000000000E+01 0. -1.
<mgrwt>
<rscale>  0 0.27368225E+03</rscale>
<asrwt>0</asrwt>
<pdfrwt beam="1">  1        2 0.65647690E-01 0.27368225E+03</pdfrwt>
<pdfrwt beam="2">  1       -2 0.67512954E-02 0.27368225E+03</pdfrwt>
<totfact> 0.91027482E+03</totfact>
</mgrwt>
</event>
<event>
 9    1  0.2098759E-002  0.2751158E+03  0.7818608E-02  0.1098387E+00
          1   -1    0    0  501    0  0.00000000000E+00  0.00000000000E+00  0.13547655728E+04  0.13547655728E+04  0.00000000000E+00 0. -1.
         -1   -1    0    0    0  501 -0.00000000000E+00 -0.00000000000E+00 -0.13967126688E+02  0.13967126688E+02  0.00000000000E+00 0. -1.
         36    2    1    2    0    0  0.00000000000E+00  0.00000000000E+00  0.13407984461E+04  0.13687326994E+04  0.27511584751E+03 0.  0.
         25    2    3    3    0    0  0.12475662249E+02  0.33322146900E+02  0.87063352087E+03  0.88106536607E+03  0.13041259141E+03 0.  0.
         25    2    3    3    0    0 -0.12475662249E+02 -0.33322146900E+02  0.47016492520E+03  0.48766733338E+03  0.12449242360E+03 0.  0.
          5    1    4    4  502    0 -0.41572496793E+02 -0.18118591802E+02  0.15582886113E+03  0.16236157125E+03  0.47000000000E+01 0. -1.
         -5    1    4    4    0  502  0.54048159042E+02  0.51440738702E+02  0.71480465975E+03  0.71870379482E+03  0.47000000000E+01 0. -1.
          5    1    5    5  503    0  0.11820980922E+02  0.34656649518E+02  0.30664551836E+03  0.30885981104E+03  0.47000000000E+01 0. -1.
         -5    1    5    5    0  503 -0.24296643171E+02 -0.67978796418E+02  0.16351940684E+03  0.17880752234E+03  0.47000000000E+01 0. -1.
<mgrwt>
<rscale>  0 0.27511585E+03</rscale>
<asrwt>0</asrwt>
<pdfrwt beam="1">  1        1 0.20842537E+00 0.27511585E+03</pdfrwt>
<pdfrwt beam="2">  1       -1 0.21487898E-02 0.27511585E+03</pdfrwt>
<totfact> 0.55265990E+03</totfact>
</mgrwt>
</event>
<event>
 9    1  0.2098759E-002  0.2746572E+03  0.7818608E-02  0.1098643E+00
         -2   -1    0    0    0  501 -0.00000000000E+00  0.00000000000E+00  0.24578846569E+02  0.24578846569E+02  0.00000000000E+00 0. -1.
          2   -1    0    0  501    0  0.00000000000E+00 -0.00000000000E+00 -0.76729139796E+03  0.76729139796E+03  0.00000000000E+00 0. -1.
         36    2    1    2    0    0 -0.14210854715E-13  0.71054273576E-14 -0.74271255139E+03  0.79187024453E+03  0.27465715024E+03 0.  0.
         25    2    3    3    0    0  0.36162013170E+02 -0.42139919720E+02 -0.42214775211E+03  0.44355843565E+03  0.12430566036E+03 0.  0.
         25    2    3    3    0    0 -0.36162013170E+02  0.42139919720E+02 -0.32056479928E+03  0.34831180888E+03  0.12440201620E+03 0.  0.
          5    1    4    4  502    0  0.70703114661E+02 -0.32614854539E+02 -0.38052145197E+03  0.38843445337E+03  0.47000000000E+01 0. -1.
         -5    1    4    4    0  502 -0.34541101491E+02 -0.95250651806E+01 -0.41626300140E+02  0.55123982278E+02  0.47000000000E+01 0. -1.
          5    1    5    5  503    0  0.43611449600E+02  0.19445237127E+02 -0.74604873462E+02  0.88702045791E+02  0.47000000000E+01 0. -1.
         -5    1    5    5    0  503 -0.79773462771E+02  0.22694682593E+02 -0.24595992582E+03  0.25960976308E+03  0.47000000000E+01 0. -1.
<mgrwt>
<rscale>  0 0.27465715E+03</rscale>
<asrwt>0</asrwt>
<pdfrwt beam="1">  1        2 0.11804481E+00 0.27465715E+03</pdfrwt>
<pdfrwt beam="2">  1       -2 0.37813618E-02 0.27465715E+03</pdfrwt>
<totfact> 0.11152900E+04</totfact>
</mgrwt>
</event>
<event>
 9    1  0.2098759E-002  0.2747259E+03  0.7818608E-02  0.1098605E+00
         -2   -1    0    0    0  501 -0.00000000000E+00  0.00000000000E+00  0.26439349773E+02  0.26439349773E+02  0.00000000000E+00 0. -1.
          2   -1    0    0  501    0  0.00000000000E+00 -0.00000000000E+00 -0.71365518969E+03  0.71365518969E+03  0.00000000000E+00 0. -1.
         36    2    1    2    0    0 -0.35527136788E-14  0.00000000000E+00 -0.68721583991E+03  0.74009453946E+03  0.27472589377E+03 0.  0.
         25    2    3    3    0    0  0.22217407680E+02 -0.45117976689E+02 -0.26278850714E+03  0.29453568175E+03  0.12314310097E+03 0.  0.
         25    2    3    3    0    0 -0.22217407680E+02  0.45117976689E+02 -0.42442733278E+03  0.44555885771E+03  0.12591620170E+03 0.  0.
          5    1    4    4  502    0 -0.73838336421E+01  0.40301585722E+02 -0.64457355827E+02  0.76521758547E+02  0.47000000000E+01 0.  1.
         -5    1    4    4    0  502  0.29601241322E+02 -0.85419562411E+02 -0.19833115131E+03  0.21801392320E+03  0.47000000000E+01 0.  1.
          5    1    5    5  503    0  0.31010764676E+02 -0.18656493351E+02 -0.49429427145E+02  0.61441765419E+02  0.47000000000E+01 0.  1.
         -5    1    5    5    0  503 -0.53228172355E+02  0.63774470040E+02 -0.37499790563E+03  0.38411709229E+03  0.47000000000E+01 0.  1.
<mgrwt>
<rscale>  0 0.27472589E+03</rscale>
<asrwt>0</asrwt>
<pdfrwt beam="1">  1        2 0.10979309E+00 0.27472589E+03</pdfrwt>
<pdfrwt beam="2">  1       -2 0.40675927E-02 0.27472589E+03</pdfrwt>
<totfact> 0.10931446E+04</totfact>
</mgrwt>
</event>
<event>
 9    1  0.2098759E-002  0.2751131E+03  0.7818608E-02  0.1098388E+00
          2   -1    0    0  501    0  0.00000000000E+00  0.00000000000E+00  0.11759633406E+03  0.11759633406E+03  0.00000000000E+00 0.  1.
         -2   -1    0    0    0  501 -0.00000000000E+00 -0.00000000000E+00 -0.16090473082E+03  0.16090473082E+03  0.00000000000E+00 0.  1.
         36    2    1    2    0    0 -0.35527136788E-14  0.17763568394E-14 -0.43308396761E+02  0.27850106487E+03  0.27511311475E+03 0.  0.
         25    2    3    3    0    0 -0.21558503393E+02 -0.14436551611E+02  0.36135856566E+02  0.13488102680E+03  0.12733384534E+03 0.  0.
         25    2    3    3    0    0  0.21558503393E+02  0.14436551611E+02 -0.79444253326E+02  0.14362003808E+03  0.11679958416E+03 0.  0.
          5    1    4    4  502    0  0.38394157164E+02 -0.26674215751E+02  0.53401164768E+02  0.71129455846E+02  0.47000000000E+01 0. -1.
         -5    1    4    4    0  502 -0.59952660557E+02  0.12237664140E+02 -0.17265308203E+02  0.63751570952E+02  0.47000000000E+01 0. -1.
          5    1    5    5  503    0  0.41590270099E+02  0.44013411513E+02 -0.50337774739E+01  0.60945548447E+02  0.47000000000E+01 0. -1.
         -5    1    5    5    0  503 -0.20031766706E+02 -0.29576859901E+02 -0.74410475852E+02  0.82674489630E+02  0.47000000000E+01 0. -1.
<mgrwt>
<rscale>  0 0.27511311E+03</rscale>
<asrwt>0</asrwt>
<pdfrwt beam="1">  1        2 0.18091744E-01 0.27511311E+03</pdfrwt>
<pdfrwt beam="2">  1       -2 0.24754574E-01 0.27511311E+03</pdfrwt>
<totfact> 0.44868055E+03</totfact>
</mgrwt>
</event>
<event>
 9    1  0.2098759E-002  0.2735661E+03  0.7818608E-02  0.1099256E+00
         -1   -1    0    0    0  501 -0.00000000000E+00  0.00000000000E+00  0.22777780069E+03  0.22777780069E+03  0.00000000000E+00 0.  1.
          1   -1    0    0  501    0  0.00000000000E+00 -0.00000000000E+00 -0.82139733389E+02  0.82139733389E+02  0.00000000000E+00 0.  1.
         36    2    1    2    0    0  0.00000000000E+00  0.00000000000E+00  0.14563806730E+03  0.30991753408E+03  0.27356613694E+03 0.  0.
         25    2    3    3    0    0  0.18569635489E+02  0.25152651865E+02  0.11395329870E+03  0.18026972762E+03  0.13614085776E+03 0.  0.
         25    2    3    3    0    0 -0.18569635489E+02 -0.25152651865E+02  0.31684768593E+02  0.12964780646E+03  0.12176675203E+03 0.  0.
          5    1    4    4  502    0 -0.58923168982E+02  0.68580417054E+01  0.55619275675E+02  0.81452847744E+02  0.47000000000E+01 0. -1.
         -5    1    4    4    0  502  0.77492804472E+02  0.18294610160E+02  0.58334023030E+02  0.98816879877E+02  0.47000000000E+01 0. -1.
          5    1    5    5  503    0  0.47345607966E+02  0.10932649655E+02  0.24547214718E+01  0.48879904661E+02  0.47000000000E+01 0.  1.
         -5    1    5    5    0  503 -0.65915243455E+02 -0.36085301520E+02  0.29230047121E+02  0.80767901794E+02  0.47000000000E+01 0.  1.
<mgrwt>
<rscale>  0 0.27356614E+03</rscale>
<asrwt>0</asrwt>
<pdfrwt beam="1">  1        1 0.12636882E-01 0.27356614E+03</pdfrwt>
<pdfrwt beam="2">  1       -1 0.35042738E-01 0.27356614E+03</pdfrwt>
<totfact> 0.36343792E+03</totfact>
</mgrwt>
</event>
<event>
 9    1  0.2098759E-002  0.2749884E+03  0.7818608E-02  0.1098458E+00
          2   -1    0    0  501    0  0.00000000000E+00  0.00000000000E+00  0.71876460562E+03  0.71876460562E+03  0.00000000000E+00 0.  1.
         -2   -1    0    0    0  501 -0.00000000000E+00 -0.00000000000E+00 -0.26301602573E+02  0.26301602573E+02  0.00000000000E+00 0.  1.
         36    2    1    2    0    0 -0.35527136788E-14  0.00000000000E+00  0.69246300305E+03  0.74506620819E+03  0.27498844340E+03 0.  0.
         25    2    3    3    0    0 -0.16930636107E+02  0.33487938933E+01  0.24158690640E+03  0.27576224049E+03  0.13184354014E+03 0.  0.
         25    2    3    3    0    0  0.16930636107E+02 -0.33487938933E+01  0.45087609665E+03  0.46930396770E+03  0.12907013099E+03 0.  0.
          5    1    4    4  502    0 -0.37905552325E+02 -0.15298721689E+02  0.24377388414E+03  0.24722192130E+03  0.47000000000E+01 0. -1.
         -5    1    4    4    0  502  0.20974916217E+02  0.18647515583E+02 -0.21869777409E+01  0.28540319188E+02  0.47000000000E+01 0. -1.
          5    1    5    5  503    0  0.12681521999E+02 -0.38708286972E+02  0.41982113224E+03  0.42181871172E+03  0.47000000000E+01 0.  1.
         -5    1    5    5    0  503  0.42491141086E+01  0.35359493079E+02  0.31054964404E+02  0.47485255982E+02  0.47000000000E+01 0.  1.
<mgrwt>
<rscale>  0 0.27498844E+03</rscale>
<asrwt>0</asrwt>
<pdfrwt beam="1">  1        2 0.11057916E+00 0.27498844E+03</pdfrwt>
<pdfrwt beam="2">  1       -2 0.40464009E-02 0.27498844E+03</pdfrwt>
<totfact> 0.10922425E+04</totfact>
</mgrwt>
</event>
<event>
 9    1  0.2098759E-002  0.2747183E+03  0.7818608E-02  0.1098609E+00
          2   -1    0    0  501    0  0.00000000000E+00  0.00000000000E+00  0.86153146742E+02  0.86153146742E+02  0.00000000000E+00 0. -1.
         -2   -1    0    0    0  501 -0.00000000000E+00 -0.00000000000E+00 -0.21900003854E+03  0.21900003854E+03  0.00000000000E+00 0. -1.
         36    2    1    2    0    0  0.35527136788E-14 -0.14210854715E-13 -0.13284689180E+03  0.30515318528E+03  0.27471834636E+03 0.  0.
         25    2    3    3    0    0  0.23383052502E+02 -0.53739454978E+02 -0.37973402220E+02  0.13958867752E+03  0.12086489751E+03 0.  0.
         25    2    3    3    0    0 -0.23383052502E+02  0.53739454978E+02 -0.94873489578E+02  0.16556450776E+03  0.12237618657E+03 0.  0.
          5    1    4    4  502    0  0.35267208215E+02 -0.66014729469E+02  0.21108821687E+02  0.77906308058E+02  0.47000000000E+01 0.  1.
         -5    1    4    4    0  502 -0.11884155713E+02  0.12275274491E+02 -0.59082223907E+02  0.61682369464E+02  0.47000000000E+01 0.  1.
          5    1    5    5  503    0 -0.49979101946E+01 -0.39555203549E+02 -0.33548257033E+02  0.52317958524E+02  0.47000000000E+01 0.  1.
         -5    1    5    5    0  503 -0.18385142307E+02  0.93294658527E+02 -0.61325232546E+02  0.11324654924E+03  0.47000000000E+01 0.  1.
<mgrwt>
<rscale>  0 0.27471835E+03</rscale>
<asrwt>0</asrwt>
<pdfrwt beam="1">  1        2 0.13254330E-01 0.27471835E+03</pdfrwt>
<pdfrwt beam="2">  1       -2 0.33692313E-01 0.27471835E+03</pdfrwt>
<totfact> 0.37135243E+03</totfact>
</mgrwt>
</event>
<event>
 9    1  0.2098759E-002  0.2740408E+03  0.7818608E-02  0.1098989E+00
          2   -1    0    0  501    0  0.00000000000E+00  0.00000000000E+00  0.10531190509E+04  0.10531190509E+04  0.00000000000E+00 0. -1.
         -2   -1    0    0    0  501 -0.00000000000E+00 -0.00000000000E+00 -0.17827598784E+02  0.17827598784E+02  0.00000000000E+00 0. -1.
         36    2    1    2    0    0  0.71054273576E-14  0.35527136788E-14  0.10352914521E+04  0.10709466497E+04  0.27404075545E+03 0.  0.
         25    2    3    3    0    0 -0.44958502480E+02  0.13892985995E+02  0.65571907173E+03  0.66868159888E+03  0.12228367689E+03 0.  0.
         25    2    3    3    0    0  0.44958502480E+02 -0.13892985995E+02  0.37957238037E+03  0.40226505080E+03  0.12461018075E+03 0.  0.
          5    1    4    4  502    0 -0.47246251048E+02  0.44335362782E+02  0.17011584383E+03  0.18209701523E+03  0.47000000000E+01 0. -1.
         -5    1    4    4    0  502  0.22877485682E+01 -0.30442376787E+02  0.48560322790E+03  0.48658458365E+03  0.47000000000E+01 0. -1.
          5    1    5    5  503    0  0.57539660490E+02  0.28781645286E+02  0.32668615011E+03  0.33299418359E+03  0.47000000000E+01 0. -1.
         -5    1    5    5    0  503 -0.12581158010E+02 -0.42674631282E+02  0.52886230267E+02  0.69270867208E+02  0.47000000000E+01 0. -1.
<mgrwt>
<rscale>  0 0.27404076E+03</rscale>
<asrwt>0</asrwt>
<pdfrwt beam="1">  1        2 0.16201827E+00 0.27404076E+03</pdfrwt>
<pdfrwt beam="2">  1       -2 0.27427083E-02 0.27404076E+03</pdfrwt>
<totfact> 0.11771310E+04</totfact>
</mgrwt>
</event>
<event>
 9    1  0.2098759E-002  0.2750478E+03  0.7818608E-02  0.1098425E+00
         -1   -1    0    0    0  501 -0.00000000000E+00  0.00000000000E+00  0.77647698246E+01  0.77647698246E+01  0.00000000000E+00 0.  1.
          1   -1    0    0  501    0  0.00000000000E+00 -0.00000000000E+00 -0.24357216618E+04  0.24357216618E+04  0.00000000000E+00 0.  1.
         36    2    1    2    0    0  0.00000000000E+00 -0.17763568394E-14 -0.24279568920E+04  0.24434864316E+04  0.27504776357E+03 0.  0.
         25    2    3    3    0    0 -0.69330661342E+02  0.17746071070E+01 -0.10553623390E+04  0.10649058055E+04  0.12419669105E+03 0.  0.
         25    2    3    3    0    0  0.69330661342E+02 -0.17746071070E+01 -0.13725945529E+04  0.13785806261E+04  0.10797613706E+03 0.  0.
          5    1    4    4  502    0 -0.61604222576E+02  0.92655828327E+01 -0.20150015154E+03  0.21096286956E+03  0.47000000000E+01 0. -1.
         -5    1    4    4    0  502 -0.77264387660E+01 -0.74909757257E+01 -0.85386218750E+03  0.85394293593E+03  0.47000000000E+01 0. -1.
          5    1    5    5  503    0  0.11429597441E+02 -0.30070239159E+02 -0.12016243907E+03  0.12448275681E+03  0.47000000000E+01 0.  1.
         -5    1    5    5    0  503  0.57901063901E+02  0.28295632052E+02 -0.12524321139E+04  0.12540978693E+04  0.47000000000E+01 0.  1.
<mgrwt>
<rscale>  0 0.27504776E+03</rscale>
<asrwt>0</asrwt>
<pdfrwt beam="1">  1        1 0.37472674E+00 0.27504776E+03</pdfrwt>
<pdfrwt beam="2">  1       -1 0.11945789E-02 0.27504776E+03</pdfrwt>
<totfact> 0.25427892E+03</totfact>
</mgrwt>
</event>
<event>
 9    1  0.2098759E-002  0.2751860E+03  0.7818608E-02  0.1098348E+00
          1   -1    0    0  501    0  0.00000000000E+00  0.00000000000E+00  0.27905617021E+03  0.27905617021E+03  0.00000000000E+00 0.  1.
         -1   -1    0    0    0  501 -0.00000000000E+00 -0.00000000000E+00 -0.67842369815E+02  0.67842369815E+02  0.00000000000E+00 0.  1.
         36    2    1    2    0    0  0.71054273576E-14 -0.14210854715E-13  0.21121380039E+03  0.34689854002E+03  0.27518598728E+03 0.  0.
         25    2    3    3    0    0  0.47384445782E+02  0.47305194523E+02  0.10924176663E+03  0.17053728247E+03  0.11254392033E+03 0.  0.
         25    2    3    3    0    0 -0.47384445782E+02 -0.47305194523E+02  0.10197203376E+03  0.17636125755E+03  0.12736534209E+03 0.  0.
          5    1    4    4  502    0 -0.27957100968E+02  0.43420937252E+02  0.64275066827E+02  0.82585419427E+02  0.47000000000E+01 0.  1.
         -5    1    4    4    0  502  0.75341546750E+02  0.38842572716E+01  0.44966699804E+02  0.87951863041E+02  0.47000000000E+01 0.  1.
          5    1    5    5  503    0 -0.17287703404E+02 -0.56798182744E+02 -0.95922770783E+01  0.60324124788E+02  0.47000000000E+01 0.  1.
         -5    1    5    5    0  503 -0.30096742378E+02  0.94929882204E+01  0.11156431084E+03  0.11603713276E+03  0.47000000000E+01 0.  1.
<mgrwt>
<rscale>  0 0.27518599E+03</rscale>
<asrwt>0</asrwt>
<pdfrwt beam="1">  1        1 0.42931718E-01 0.27518599E+03</pdfrwt>
<pdfrwt beam="2">  1       -1 0.10437288E-01 0.27518599E+03</pdfrwt>
<totfact> 0.54402799E+03</totfact>
</mgrwt>
</event>
<event>
 9    1  0.2098759E-002  0.2760791E+03  0.7818608E-02  0.1097850E+00
          1   -1    0    0  501    0  0.00000000000E+00  0.00000000000E+00  0.32005377795E+03  0.32005377795E+03  0.00000000000E+00 0.  1.
         -1   -1    0    0    0  501 -0.00000000000E+00 -0.00000000000E+00 -0.59536623739E+02  0.59536623739E+02  0.00000000000E+00 0.  1.
         36    2    1    2    0    0  0.00000000000E+00  0.00000000000E+00  0.26051715421E+03  0.37959040169E+03  0.27607912890E+03 0.  0.
         25    2    3    3    0    0 -0.34724005778E+02  0.31764003138E+02  0.17226703075E+03  0.21983511835E+03  0.12820624362E+03 0.  0.
         25    2    3    3    0    0  0.34724005778E+02 -0.31764003138E+02  0.88250123464E+02  0.15975528334E+03  0.12457510904E+03 0.  0.
          5    1    4    4  502    0  0.41295370720E+02  0.74326903711E+01  0.11204619143E+03  0.11973717695E+03  0.47000000000E+01 0.  1.
         -5    1    4    4    0  502 -0.76019376498E+02  0.24331312767E+02  0.60220839317E+02  0.10009794140E+03  0.47000000000E+01 0.  1.
          5    1    5    5  503    0  0.73497226666E+02 -0.36990963461E+02  0.26626032064E+02  0.86609521929E+02  0.47000000000E+01 0.  1.
         -5    1    5    5    0  503 -0.38773220888E+02  0.52269603228E+01  0.61624091399E+02  0.73145761415E+02  0.47000000000E+01 0.  1.
<mgrwt>
<rscale>  0 0.27607913E+03</rscale>
<asrwt>0</asrwt>
<pdfrwt beam="1">  1        1 0.49239042E-01 0.27607913E+03</pdfrwt>
<pdfrwt beam="2">  1       -1 0.91594807E-02 0.27607913E+03</pdfrwt>
<totfact> 0.56019431E+03</totfact>
</mgrwt>
</event>
<event>
 9    1  0.2098759E-002  0.2751207E+03  0.7818608E-02  0.1098384E+00
         -2   -1    0    0    0  501 -0.00000000000E+00  0.00000000000E+00  0.97343592894E+02  0.97343592894E+02  0.00000000000E+00 0.  1.
          2   -1    0    0  501    0  0.00000000000E+00 -0.00000000000E+00 -0.19439233374E+03  0.19439233374E+03  0.00000000000E+00 0.  1.
         36    2    1    2    0    0 -0.35527136788E-14  0.14210854715E-13 -0.97048740841E+02  0.29173592663E+03  0.27512068768E+03 0.  0.
         25    2    3    3    0    0 -0.31839520912E+02 -0.43018250737E+02 -0.39145155050E+02  0.13945784451E+03  0.12268586815E+03 0.  0.
         25    2    3    3    0    0  0.31839520912E+02  0.43018250737E+02 -0.57903585791E+02  0.15227808212E+03  0.13027457180E+03 0.  0.
          5    1    4    4  502    0  0.14771498313E+02 -0.55279915661E+01  0.38184462082E+02  0.41580031237E+02  0.47000000000E+01 0. -1.
         -5    1    4    4    0  502 -0.46611019225E+02 -0.37490259171E+02 -0.77329617133E+02  0.97877813277E+02  0.47000000000E+01 0. -1.
          5    1    5    5  503    0  0.25994317246E+02 -0.22666233658E+02 -0.76121934522E+02  0.83702458701E+02  0.47000000000E+01 0.  1.
         -5    1    5    5    0  503  0.58452036659E+01  0.65684484395E+02  0.18218348731E+02  0.68575623414E+02  0.47000000000E+01 0.  1.
<mgrwt>
<rscale>  0 0.27512069E+03</rscale>
<asrwt>0</asrwt>
<pdfrwt beam="1">  1        2 0.29906513E-01 0.27512069E+03</pdfrwt>
<pdfrwt beam="2">  1       -2 0.14975938E-01 0.27512069E+03</pdfrwt>
<totfact> 0.59952854E+03</totfact>
</mgrwt>
</event>
<event>
 9    1  0.2098759E-002  0.2778523E+03  0.7818608E-02  0.1096868E+00
          1   -1    0    0  501    0  0.00000000000E+00  0.00000000000E+00  0.99212777314E+03  0.99212777314E+03  0.00000000000E+00 0. -1.
         -1   -1    0    0    0  501 -0.00000000000E+00 -0.00000000000E+00 -0.19453622284E+02  0.19453622284E+02  0.00000000000E+00 0. -1.
         36    2    1    2    0    0 -0.71054273576E-14 -0.35527136788E-14  0.97267415085E+03  0.10115813954E+04  0.27785232737E+03 0.  0.
         25    2    3    3    0    0 -0.12603319451E+02 -0.26610024968E+02  0.76936591956E+03  0.77999255874E+03  0.12489009740E+03 0.  0.
         25    2    3    3    0    0  0.12603319451E+02  0.26610024968E+02  0.20330823129E+03  0.23158883667E+03  0.10692153792E+03 0.  0.
          5    1    4    4  502    0  0.46692152894E+02  0.14104278721E+02  0.19242418292E+03  0.19856546525E+03  0.47000000000E+01 0.  1.
         -5    1    4    4    0  502 -0.59295472345E+02 -0.40714303689E+02  0.57694173664E+03  0.58142709349E+03  0.47000000000E+01 0.  1.
          5    1    5    5  503    0  0.39605019243E+02  0.22303489529E+02  0.19817361068E+03  0.20337372782E+03  0.47000000000E+01 0.  1.
         -5    1    5    5    0  503 -0.27001699792E+02  0.43065354393E+01  0.51346206096E+01  0.28215108859E+02  0.47000000000E+01 0.  1.
<mgrwt>
<rscale>  0 0.27785233E+03</rscale>
<asrwt>0</asrwt>
<pdfrwt beam="1">  1        1 0.15263500E+00 0.27785233E+03</pdfrwt>
<pdfrwt beam="2">  1       -1 0.29928657E-02 0.27785233E+03</pdfrwt>
<totfact> 0.61339967E+03</totfact>
</mgrwt>
</event>
<event>
 9    1  0.2098759E-002  0.2736402E+03  0.7818608E-02  0.1099214E+00
         -2   -1    0    0    0  501 -0.00000000000E+00  0.00000000000E+00  0.54227097308E+02  0.54227097308E+02  0.00000000000E+00 0. -1.
          2   -1    0    0  501    0  0.00000000000E+00 -0.00000000000E+00 -0.34521018289E+03  0.34521018289E+03  0.00000000000E+00 0. -1.
         36    2    1    2    0    0 -0.71054273576E-14  0.00000000000E+00 -0.29098308559E+03  0.39943728020E+03  0.27364024689E+03 0.  0.
         25    2    3    3    0    0  0.28696352320E+02 -0.54833034312E+02 -0.13520649001E+03  0.19473609566E+03  0.12574263289E+03 0.  0.
         25    2    3    3    0    0 -0.28696352320E+02  0.54833034312E+02 -0.15577659558E+03  0.20470118454E+03  0.11749929758E+03 0.  0.
          5    1    4    4  502    0 -0.49068974514E+02 -0.20591661935E+02 -0.66905881011E+02  0.85616982632E+02  0.47000000000E+01 0.  1.
         -5    1    4    4    0  502  0.77765326834E+02 -0.34241372377E+02 -0.68300608994E+02  0.10911911303E+03  0.47000000000E+01 0.  1.
          5    1    5    5  503    0 -0.65416015051E+02  0.66936082941E+02 -0.10565002911E+03  0.14122221098E+03  0.47000000000E+01 0.  1.
         -5    1    5    5    0  503  0.36719662731E+02 -0.12103048629E+02 -0.50126566475E+02  0.63478973557E+02  0.47000000000E+01 0.  1.
<mgrwt>
<rscale>  0 0.27364025E+03</rscale>
<asrwt>0</asrwt>
<pdfrwt beam="1">  1        2 0.53109262E-01 0.27364025E+03</pdfrwt>
<pdfrwt beam="2">  1       -2 0.83426299E-02 0.27364025E+03</pdfrwt>
<totfact> 0.82418611E+03</totfact>
</mgrwt>
</event>
<event>
 9    1  0.2098759E-002  0.2754080E+03  0.7818608E-02  0.1098224E+00
          2   -1    0    0  501    0  0.00000000000E+00  0.00000000000E+00  0.18878121162E+03  0.18878121162E+03  0.00000000000E+00 0. -1.
         -2   -1    0    0    0  501 -0.00000000000E+00 -0.00000000000E+00 -0.10044638306E+03  0.10044638306E+03  0.00000000000E+00 0. -1.
         36    2    1    2    0    0 -0.10658141036E-13  0.00000000000E+00  0.88334828561E+02  0.28922759468E+03  0.27540798751E+03 0.  0.
         25    2    3    3    0    0  0.26753573962E+02 -0.48030753975E+02  0.57607409070E+02  0.15118921197E+03  0.12851792555E+03 0.  0.
         25    2    3    3    0    0 -0.26753573962E+02  0.48030753975E+02  0.30727419491E+02  0.13803838271E+03  0.12283205504E+03 0.  0.
          5    1    4    4  502    0  0.68831504518E+02 -0.59145891438E+02  0.19037307661E+02  0.92846763924E+02  0.47000000000E+01 0.  1.
         -5    1    4    4    0  502 -0.42077930556E+02  0.11115137463E+02  0.38570101409E+02  0.58342448041E+02  0.47000000000E+01 0.  1.
          5    1    5    5  503    0 -0.48517569434E+02  0.18955859947E+02 -0.34906190923E+02  0.62879339491E+02  0.47000000000E+01 0.  1.
         -5    1    5    5    0  503  0.21763995473E+02  0.29074894028E+02  0.65633610413E+02  0.75159043219E+02  0.47000000000E+01 0.  1.
<mgrwt>
<rscale>  0 0.27540799E+03</rscale>
<asrwt>0</asrwt>
<pdfrwt beam="1">  1        2 0.29043263E-01 0.27540799E+03</pdfrwt>
<pdfrwt beam="2">  1       -2 0.15453290E-01 0.27540799E+03</pdfrwt>
<totfact> 0.58784095E+03</totfact>
</mgrwt>
</event>
<event>
 9    1  0.2098759E-002  0.2770896E+03  0.7818608E-02  0.1097289E+00
          3   -1    0    0  501    0  0.00000000000E+00  0.00000000000E+00  0.97996586744E+02  0.97996586744E+02  0.00000000000E+00 0.  1.
         -3   -1    0    0    0  501 -0.00000000000E+00 -0.00000000000E+00 -0.19587076105E+03  0.19587076105E+03  0.00000000000E+00 0.  1.
         36    2    1    2    0    0 -0.17763568394E-14 -0.71054273576E-14 -0.97874174306E+02  0.29386734779E+03  0.27708963189E+03 0.  0.
         25    2    3    3    0    0 -0.82025005965E+01  0.22460438533E+02 -0.32746569838E+01  0.13091181520E+03  0.12866789680E+03 0.  0.
         25    2    3    3    0    0  0.82025005965E+01 -0.22460438533E+02 -0.94599517322E+02  0.16295553259E+03  0.13051315876E+03 0.  0.
          5    1    4    4  502    0 -0.11383748581E+01  0.75649866440E+02 -0.10644655588E+02  0.76548003777E+02  0.47000000000E+01 0. -1.
         -5    1    4    4    0  502 -0.70641257384E+01 -0.53189427906E+02  0.73699986045E+01  0.54363811427E+02  0.47000000000E+01 0. -1.
          5    1    5    5  503    0 -0.55139309320E+02 -0.23501578680E+02 -0.75716848346E+02  0.96684014998E+02  0.47000000000E+01 0.  1.
         -5    1    5    5    0  503  0.63341809916E+02  0.10411401470E+01 -0.18882668976E+02  0.66271517592E+02  0.47000000000E+01 0.  1.
<mgrwt>
<rscale>  0 0.27708963E+03</rscale>
<asrwt>0</asrwt>
<pdfrwt beam="1">  1        3 0.15076398E-01 0.27708963E+03</pdfrwt>
<pdfrwt beam="2">  1       -3 0.30133963E-01 0.27708963E+03</pdfrwt>
<totfact> 0.99706641E+02</totfact>
</mgrwt>
</event>
<event>
 9    1  0.2098759E-002  0.2754524E+03  0.7818608E-02  0.1098199E+00
         -2   -1    0    0    0  501 -0.00000000000E+00  0.00000000000E+00  0.25805720724E+02  0.25805720724E+02  0.00000000000E+00 0. -1.
          2   -1    0    0  501    0  0.00000000000E+00 -0.00000000000E+00 -0.73505061070E+03  0.73505061070E+03  0.00000000000E+00 0. -1.
         36    2    1    2    0    0  0.00000000000E+00  0.00000000000E+00 -0.70924488998E+03  0.76085633143E+03  0.27545243348E+03 0.  0.
         25    2    3    3    0    0 -0.12049289145E+01  0.13199200308E+02 -0.50878770831E+03  0.52387260909E+03  0.12410442252E+03 0.  0.
         25    2    3    3    0    0  0.12049289145E+01 -0.13199200308E+02 -0.20045718167E+03  0.23698372233E+03  0.12570812315E+03 0.  0.
          5    1    4    4  502    0  0.54124324856E+02  0.34181488803E+02 -0.22698715992E+03  0.23588784938E+03  0.47000000000E+01 0. -1.
         -5    1    4    4    0  502 -0.55329253770E+02 -0.20982288495E+02 -0.28180054839E+03  0.28798475971E+03  0.47000000000E+01 0. -1.
          5    1    5    5  503    0 -0.53843911216E+02 -0.37271324820E+02 -0.94116567513E+02  0.11475337341E+03  0.47000000000E+01 0.  1.
         -5    1    5    5    0  503  0.55048840130E+02  0.24072124512E+02 -0.10634061416E+03  0.12223034892E+03  0.47000000000E+01 0.  1.
<mgrwt>
<rscale>  0 0.27545243E+03</rscale>
<asrwt>0</asrwt>
<pdfrwt beam="1">  1        2 0.11308470E+00 0.27545243E+03</pdfrwt>
<pdfrwt beam="2">  1       -2 0.39701111E-02 0.27545243E+03</pdfrwt>
<totfact> 0.10935136E+04</totfact>
</mgrwt>
</event>
<event>
 9    1  0.2098759E-002  0.2747596E+03  0.7818608E-02  0.1098586E+00
         -2   -1    0    0    0  501 -0.00000000000E+00  0.00000000000E+00  0.96954277059E+01  0.96954277059E+01  0.00000000000E+00 0.  1.
          2   -1    0    0  501    0  0.00000000000E+00 -0.00000000000E+00 -0.19466090361E+04  0.19466090361E+04  0.00000000000E+00 0.  1.
         36    2    1    2    0    0 -0.71054273576E-14  0.71054273576E-14 -0.19369136084E+04  0.19563044638E+04  0.27475958350E+03 0.  0.
         25    2    3    3    0    0  0.25961065002E+01  0.60888711831E+02 -0.89014930796E+03  0.90051850095E+03  0.12187536704E+03 0.  0.
         25    2    3    3    0    0 -0.25961065002E+01 -0.60888711831E+02 -0.10467643005E+04  0.10557859629E+04  0.12350839529E+03 0.  0.
          5    1    4    4  502    0  0.46025410191E+02  0.54023381610E+01 -0.60364560839E+03  0.60544003351E+03  0.47000000000E+01 0.  1.
         -5    1    4    4    0  502 -0.43429303691E+02  0.55486373670E+02 -0.28650369957E+03  0.29507846744E+03  0.47000000000E+01 0.  1.
          5    1    5    5  503    0 -0.28730896308E+02 -0.86544880235E+02 -0.89274887773E+03  0.89740633460E+03  0.47000000000E+01 0. -1.
         -5    1    5    5    0  503  0.26134789808E+02  0.25656168404E+02 -0.15401542274E+03  0.15837962829E+03  0.47000000000E+01 0. -1.
<mgrwt>
<rscale>  0 0.27475958E+03</rscale>
<asrwt>0</asrwt>
<pdfrwt beam="1">  1        2 0.29947807E+00 0.27475958E+03</pdfrwt>
<pdfrwt beam="2">  1       -2 0.14916055E-02 0.27475958E+03</pdfrwt>
<totfact> 0.94279164E+03</totfact>
</mgrwt>
</event>
<event>
 9    1  0.2098759E-002  0.2752914E+03  0.7818608E-02  0.1098289E+00
          1   -1    0    0  501    0  0.00000000000E+00  0.00000000000E+00  0.11039815855E+04  0.11039815855E+04  0.00000000000E+00 0. -1.
         -1   -1    0    0    0  501 -0.00000000000E+00 -0.00000000000E+00 -0.17161828390E+02  0.17161828390E+02  0.00000000000E+00 0. -1.
         36    2    1    2    0    0  0.71054273576E-14  0.17763568394E-14  0.10868197571E+04  0.11211434139E+04  0.27529142752E+03 0.  0.
         25    2    3    3    0    0  0.35346677657E+02 -0.27787243002E+01  0.35249840471E+03  0.37500537762E+03  0.12295039240E+03 0.  0.
         25    2    3    3    0    0 -0.35346677657E+02  0.27787243002E+01  0.73432135242E+03  0.74613803629E+03  0.12742453315E+03 0.  0.
          5    1    4    4  502    0  0.60561325339E+02 -0.46857531281E+02  0.22299132594E+03  0.23581883684E+03  0.47000000000E+01 0.  1.
         -5    1    4    4    0  502 -0.25214647683E+02  0.44078806981E+02  0.12950707877E+03  0.13918654078E+03  0.47000000000E+01 0.  1.
          5    1    5    5  503    0  0.35793840155E+02 -0.38089555294E+01  0.79287367129E+02  0.87202544237E+02  0.47000000000E+01 0.  1.
         -5    1    5    5    0  503 -0.71140517812E+02  0.65876798295E+01  0.65503398529E+03  0.65893549205E+03  0.47000000000E+01 0.  1.
<mgrwt>
<rscale>  0 0.27529143E+03</rscale>
<asrwt>0</asrwt>
<pdfrwt beam="1">  1        1 0.16984327E+00 0.27529143E+03</pdfrwt>
<pdfrwt beam="2">  1       -1 0.26402821E-02 0.27529143E+03</pdfrwt>
<totfact> 0.61048281E+03</totfact>
</mgrwt>
</event>
<event>
 9    1  0.2098759E-002  0.2742637E+03  0.7818608E-02  0.1098864E+00
         -1   -1    0    0    0  501 -0.00000000000E+00  0.00000000000E+00  0.10670051706E+02  0.10670051706E+02  0.00000000000E+00 0. -1.
          1   -1    0    0  501    0  0.00000000000E+00 -0.00000000000E+00 -0.17624225019E+04  0.17624225019E+04  0.00000000000E+00 0. -1.
         36    2    1    2    0    0 -0.71054273576E-14  0.44408920985E-14 -0.17517524502E+04  0.17730925536E+04  0.27426366310E+03 0.  0.
         25    2    3    3    0    0  0.44174390326E+02  0.28932958916E+01 -0.11906842096E+04  0.11977056105E+04  0.12169673218E+03 0.  0.
         25    2    3    3    0    0 -0.44174390326E+02 -0.28932958916E+01 -0.56106824063E+03  0.57538694309E+03  0.11963618064E+03 0.  0.
          5    1    4    4  502    0 -0.71403931545E+01 -0.51322461773E+02 -0.61195928235E+03  0.61416710556E+03  0.47000000000E+01 0. -1.
         -5    1    4    4    0  502  0.51314783481E+02  0.54215757665E+02 -0.57872492725E+03  0.58353850498E+03  0.47000000000E+01 0. -1.
          5    1    5    5  503    0  0.92634256716E+01  0.50387162092E+01  0.15877866114E+00  0.11546208333E+02  0.47000000000E+01 0.  1.
         -5    1    5    5    0  503 -0.53437815998E+02 -0.79320121008E+01 -0.56122701929E+03  0.56384073476E+03  0.47000000000E+01 0.  1.
<mgrwt>
<rscale>  0 0.27426366E+03</rscale>
<asrwt>0</asrwt>
<pdfrwt beam="1">  1        1 0.27114184E+00 0.27426366E+03</pdfrwt>
<pdfrwt beam="2">  1       -1 0.16415469E-02 0.27426366E+03</pdfrwt>
<totfact> 0.44053234E+03</totfact>
</mgrwt>
</event>
<event>
 9    1  0.2098759E-002  0.2752748E+03  0.7818608E-02  0.1098298E+00
          2   -1    0    0  501    0  0.00000000000E+00  0.00000000000E+00  0.23614906247E+03  0.23614906247E+03  0.00000000000E+00 0. -1.
         -2   -1    0    0    0  501 -0.00000000000E+00 -0.00000000000E+00 -0.80220746156E+02  0.80220746156E+02  0.00000000000E+00 0. -1.
         36    2    1    2    0    0  0.00000000000E+00  0.00000000000E+00  0.15592831631E+03  0.31636980862E+03  0.27527480085E+03 0.  0.
         25    2    3    3    0    0 -0.60326168256E+02  0.19311746501E+02  0.88202435971E+02  0.16313160916E+03  0.12173767727E+03 0.  0.
         25    2    3    3    0    0  0.60326168256E+02 -0.19311746501E+02  0.67725880341E+02  0.15323819946E+03  0.12199574081E+03 0.  0.
          5    1    4    4  502    0  0.17515095065E+02 -0.26133999741E+02 -0.63257532174E+01  0.32432540008E+02  0.47000000000E+01 0. -1.
         -5    1    4    4    0  502 -0.77841263321E+02  0.45445746242E+02  0.94528189188E+02  0.13069906916E+03  0.47000000000E+01 0. -1.
          5    1    5    5  503    0  0.23405505436E+02  0.50551825740E+02  0.14198020447E+02  0.57679966669E+02  0.47000000000E+01 0. -1.
         -5    1    5    5    0  503  0.36920662821E+02 -0.69863572241E+02  0.53527859895E+02  0.95558232792E+02  0.47000000000E+01 0. -1.
<mgrwt>
<rscale>  0 0.27527480E+03</rscale>
<asrwt>0</asrwt>
<pdfrwt beam="1">  1        2 0.36330625E-01 0.27527480E+03</pdfrwt>
<pdfrwt beam="2">  1       -2 0.12341653E-01 0.27527480E+03</pdfrwt>
<totfact> 0.66539783E+03</totfact>
</mgrwt>
</event>
<event>
 9    1  0.2098759E-002  0.2833107E+03  0.7818608E-02  0.1093894E+00
         -2   -1    0    0    0  501 -0.00000000000E+00  0.00000000000E+00  0.75056443222E+01  0.75056443222E+01  0.00000000000E+00 0. -1.
          2   -1    0    0  501    0  0.00000000000E+00 -0.00000000000E+00 -0.26734858026E+04  0.26734858026E+04  0.00000000000E+00 0. -1.
         36    2    1    2    0    0  0.00000000000E+00  0.00000000000E+00 -0.26659801583E+04  0.26809914469E+04  0.28331066718E+03 0.  0.
         25    2    3    3    0    0 -0.54934727002E+02 -0.10103425719E+02 -0.97411216509E+03  0.98324049864E+03  0.12143913926E+03 0.  0.
         25    2    3    3    0    0  0.54934727002E+02  0.10103425719E+02 -0.16918679932E+04  0.16977509483E+04  0.12969607775E+03 0.  0.
          5    1    4    4  502    0  0.22049537904E+02  0.10277342903E+02 -0.51127997423E+02  0.56815209403E+02  0.47000000000E+01 0.  1.
         -5    1    4    4    0  502 -0.76984264906E+02 -0.20380768622E+02 -0.92298416767E+03  0.92642528924E+03  0.47000000000E+01 0.  1.
          5    1    5    5  503    0  0.33566797182E+02  0.66987749842E+02 -0.70054831905E+03  0.70455952610E+03  0.47000000000E+01 0.  1.
         -5    1    5    5    0  503  0.21367929820E+02 -0.56884324123E+02 -0.99131967415E+03  0.99319142219E+03  0.47000000000E+01 0.  1.
<mgrwt>
<rscale>  0 0.28331067E+03</rscale>
<asrwt>0</asrwt>
<pdfrwt beam="1">  1        2 0.41130497E+00 0.28331067E+03</pdfrwt>
<pdfrwt beam="2">  1       -2 0.11547160E-02 0.28331067E+03</pdfrwt>
<totfact> 0.55555967E+03</totfact>
</mgrwt>
</event>
<event>
 9    1  0.2098759E-002  0.2753036E+03  0.7818608E-02  0.1098282E+00
         -2   -1    0    0    0  501 -0.00000000000E+00  0.00000000000E+00  0.12264806161E+03  0.12264806161E+03  0.00000000000E+00 0.  1.
          2   -1    0    0  501    0  0.00000000000E+00 -0.00000000000E+00 -0.15449100881E+03  0.15449100881E+03  0.00000000000E+00 0.  1.
         36    2    1    2    0    0  0.00000000000E+00  0.00000000000E+00 -0.31842947196E+02  0.27713907042E+03  0.27530363432E+03 0.  0.
         25    2    3    3    0    0  0.34283923947E+02  0.11165801803E+02 -0.44195400209E+02  0.13794026527E+03  0.12559546493E+03 0.  0.
         25    2    3    3    0    0 -0.34283923947E+02 -0.11165801803E+02  0.12352453012E+02  0.13919880515E+03  0.13387928028E+03 0.  0.
          5    1    4    4  502    0 -0.19966790153E+02 -0.26044626788E+02  0.25620070329E+02  0.41898368670E+02  0.47000000000E+01 0.  1.
         -5    1    4    4    0  502  0.54250714100E+02  0.37210428590E+02 -0.69815470538E+02  0.96041896600E+02  0.47000000000E+01 0.  1.
          5    1    5    5  503    0  0.45666439232E+02 -0.30211035805E+02 -0.46033609236E+01  0.55148991726E+02  0.47000000000E+01 0. -1.
         -5    1    5    5    0  503 -0.79950363179E+02  0.19045234002E+02  0.16955813936E+02  0.84049813426E+02  0.47000000000E+01 0. -1.
<mgrwt>
<rscale>  0 0.27530363E+03</rscale>
<asrwt>0</asrwt>
<pdfrwt beam="1">  1        2 0.23767847E-01 0.27530363E+03</pdfrwt>
<pdfrwt beam="2">  1       -2 0.18868933E-01 0.27530363E+03</pdfrwt>
<totfact> 0.52555841E+03</totfact>
</mgrwt>
</event>
<event>
 9    1  0.2098759E-002  0.2753896E+03  0.7818608E-02  0.1098234E+00
          2   -1    0    0  501    0  0.00000000000E+00  0.00000000000E+00  0.10073590845E+04  0.10073590845E+04  0.00000000000E+00 0.  1.
         -2   -1    0    0    0  501 -0.00000000000E+00 -0.00000000000E+00 -0.18821351044E+02  0.18821351044E+02  0.00000000000E+00 0.  1.
         36    2    1    2    0    0 -0.71054273576E-14  0.71054273576E-14  0.98853773346E+03  0.10261804356E+04  0.27538960734E+03 0.  0.
         25    2    3    3    0    0  0.27533330992E+02 -0.44196269016E+02  0.51138943249E+03  0.53034909305E+03  0.13053587370E+03 0.  0.
         25    2    3    3    0    0 -0.27533330992E+02  0.44196269016E+02  0.47714830097E+03  0.49583134251E+03  0.12436568892E+03 0.  0.
          5    1    4    4  502    0  0.43785809541E+02  0.36791678074E+02  0.22981125903E+03  0.23686732461E+03  0.47000000000E+01 0.  1.
         -5    1    4    4    0  502 -0.16252478549E+02 -0.80987947090E+02  0.28157817347E+03  0.29348176844E+03  0.47000000000E+01 0.  1.
          5    1    5    5  503    0  0.30496866184E+02 -0.44585527433E+01  0.31796839274E+03  0.31949323361E+03  0.47000000000E+01 0.  1.
         -5    1    5    5    0  503 -0.58030197176E+02  0.48654821760E+02  0.15917990823E+03  0.17633810890E+03  0.47000000000E+01 0.  1.
<mgrwt>
<rscale>  0 0.27538961E+03</rscale>
<asrwt>0</asrwt>
<pdfrwt beam="1">  1        2 0.15497828E+00 0.27538961E+03</pdfrwt>
<pdfrwt beam="2">  1       -2 0.28955933E-02 0.27538961E+03</pdfrwt>
<totfact> 0.11575904E+04</totfact>
</mgrwt>
</event>
<event>
 9    1  0.2098759E-002  0.2661776E+03  0.7818608E-02  0.1103487E+00
          2   -1    0    0  501    0  0.00000000000E+00  0.00000000000E+00  0.30042356846E+03  0.30042356846E+03  0.00000000000E+00 0.  1.
         -2   -1    0    0    0  501 -0.00000000000E+00 -0.00000000000E+00 -0.58958845626E+02  0.58958845626E+02  0.00000000000E+00 0.  1.
         36    2    1    2    0    0 -0.17763568394E-14 -0.35527136788E-14  0.24146472284E+03  0.35938241409E+03  0.26617758580E+03 0.  0.
         25    2    3    3    0    0  0.12920013189E+02 -0.29929825994E+02  0.74399524347E+02  0.14814071931E+03  0.12388568226E+03 0.  0.
         25    2    3    3    0    0 -0.12920013189E+02  0.29929825994E+02  0.16706519849E+03  0.21124169478E+03  0.12509816882E+03 0.  0.
          5    1    4    4  502    0  0.15361720762E+02 -0.25640020214E+01 -0.33209673480E+02  0.36980116059E+02  0.47000000000E+01 0.  1.
         -5    1    4    4    0  502 -0.24417075729E+01 -0.27365823973E+02  0.10760919783E+03  0.11116060325E+03  0.47000000000E+01 0.  1.
          5    1    5    5  503    0  0.12448003514E+02 -0.27481397407E+02 -0.22400616535E+01  0.30615157539E+02  0.47000000000E+01 0.  1.
         -5    1    5    5    0  503 -0.25368016703E+02  0.57411223401E+02  0.16930526014E+03  0.18062653724E+03  0.47000000000E+01 0.  1.
<mgrwt>
<rscale>  0 0.26617759E+03</rscale>
<asrwt>0</asrwt>
<pdfrwt beam="1">  1        2 0.46219010E-01 0.26617759E+03</pdfrwt>
<pdfrwt beam="2">  1       -2 0.90705918E-02 0.26617759E+03</pdfrwt>
<totfact> 0.83829681E+03</totfact>
</mgrwt>
</event>
<event>
 9    1  0.2098759E-002  0.2741835E+03  0.7818608E-02  0.1098909E+00
          2   -1    0    0  501    0  0.00000000000E+00  0.00000000000E+00  0.63704389268E+03  0.63704389268E+03  0.00000000000E+00 0.  1.
         -2   -1    0    0    0  501 -0.00000000000E+00 -0.00000000000E+00 -0.29502118824E+02  0.29502118824E+02  0.00000000000E+00 0.  1.
         36    2    1    2    0    0  0.00000000000E+00  0.17763568394E-14  0.60754177386E+03  0.66654601150E+03  0.27418347593E+03 0.  0.
         25    2    3    3    0    0  0.14351904478E+02  0.80503640560E+01  0.17735701006E+03  0.21827311796E+03  0.12616203661E+03 0.  0.
         25    2    3    3    0    0 -0.14351904478E+02 -0.80503640560E+01  0.43018476380E+03  0.44827289355E+03  0.12497547985E+03 0.  0.
          5    1    4    4  502    0 -0.68248394808E+01  0.60179137740E+02  0.13386142498E+03  0.14700026582E+03  0.47000000000E+01 0. -1.
         -5    1    4    4    0  502  0.21176743959E+02 -0.52128773684E+02  0.43495585082E+02  0.71272852140E+02  0.47000000000E+01 0. -1.
          5    1    5    5  503    0  0.10643172994E+02 -0.14068911373E+02  0.99026963971E+00  0.18283381322E+02  0.47000000000E+01 0. -1.
         -5    1    5    5    0  503 -0.24995077472E+02  0.60185473171E+01  0.42919449416E+03  0.42998951222E+03  0.47000000000E+01 0. -1.
<mgrwt>
<rscale>  0 0.27418348E+03</rscale>
<asrwt>0</asrwt>
<pdfrwt beam="1">  1        2 0.98006743E-01 0.27418348E+03</pdfrwt>
<pdfrwt beam="2">  1       -2 0.45387880E-02 0.27418348E+03</pdfrwt>
<totfact> 0.10616695E+04</totfact>
</mgrwt>
</event>
<event>
 9    1  0.2098759E-002  0.2762102E+03  0.7818608E-02  0.1097777E+00
          2   -1    0    0  501    0  0.00000000000E+00  0.00000000000E+00  0.66144411910E+03  0.66144411910E+03  0.00000000000E+00 0.  1.
         -2   -1    0    0    0  501 -0.00000000000E+00 -0.00000000000E+00 -0.28835414173E+02  0.28835414173E+02  0.00000000000E+00 0.  1.
         36    2    1    2    0    0  0.00000000000E+00 -0.17763568394E-14  0.63260870493E+03  0.69027953327E+03  0.27621017451E+03 0.  0.
         25    2    3    3    0    0  0.35434591842E+02  0.62582917164E+00  0.39264927709E+03  0.41396060924E+03  0.12622966862E+03 0.  0.
         25    2    3    3    0    0 -0.35434591842E+02 -0.62582917164E+00  0.23995942784E+03  0.27631892403E+03  0.13234658594E+03 0.  0.
          5    1    4    4  502    0  0.48605707256E+02 -0.51625930089E+02  0.15941946955E+03  0.17454056465E+03  0.47000000000E+01 0.  1.
         -5    1    4    4    0  502 -0.13171115413E+02  0.52251759261E+02  0.23322980754E+03  0.23942004459E+03  0.47000000000E+01 0.  1.
          5    1    5    5  503    0 -0.50074396964E+02  0.13583857821E+02  0.24835629988E+03  0.25376151819E+03  0.47000000000E+01 0. -1.
         -5    1    5    5    0  503  0.14639805121E+02 -0.14209686993E+02 -0.83968720407E+01  0.22557405846E+02  0.47000000000E+01 0. -1.
<mgrwt>
<rscale>  0 0.27621017E+03</rscale>
<asrwt>0</asrwt>
<pdfrwt beam="1">  1        2 0.10176062E+00 0.27621017E+03</pdfrwt>
<pdfrwt beam="2">  1       -2 0.44362180E-02 0.27621017E+03</pdfrwt>
<totfact> 0.10513645E+04</totfact>
</mgrwt>
</event>
<event>
 9    1  0.2098759E-002  0.2723628E+03  0.7818608E-02  0.1099935E+00
         -2   -1    0    0    0  501 -0.00000000000E+00  0.00000000000E+00  0.69394826941E+01  0.69394826941E+01  0.00000000000E+00 0. -1.
          2   -1    0    0  501    0  0.00000000000E+00 -0.00000000000E+00 -0.26724441569E+04  0.26724441569E+04  0.00000000000E+00 0. -1.
         36    2    1    2    0    0  0.71054273576E-14  0.00000000000E+00 -0.26655046742E+04  0.26793836396E+04  0.27236284605E+03 0.  0.
         25    2    3    3    0    0 -0.46577642763E+02 -0.10697592653E+02 -0.13818723422E+04  0.13884491315E+04  0.12623749489E+03 0.  0.
         25    2    3    3    0    0  0.46577642763E+02  0.10697592653E+02 -0.12836323319E+04  0.12909345081E+04  0.12851468914E+03 0.  0.
          5    1    4    4  502    0 -0.72024752716E+02 -0.71349113604E+01 -0.41960683087E+03  0.42582913766E+03  0.47000000000E+01 0. -1.
         -5    1    4    4    0  502  0.25447109954E+02 -0.35626812930E+01 -0.96226551138E+03  0.96261999381E+03  0.47000000000E+01 0. -1.
          5    1    5    5  503    0 -0.18520561985E+02  0.51728189260E+02 -0.71111653106E+03  0.71325144761E+03  0.47000000000E+01 0. -1.
         -5    1    5    5    0  503  0.65098204748E+02 -0.41030596607E+02 -0.57251580086E+03  0.57768306047E+03  0.47000000000E+01 0. -1.
<mgrwt>
<rscale>  0 0.27236285E+03</rscale>
<asrwt>0</asrwt>
<pdfrwt beam="1">  1        2 0.41114605E+00 0.27236285E+03</pdfrwt>
<pdfrwt beam="2">  1       -2 0.10676107E-02 0.27236285E+03</pdfrwt>
<totfact> 0.62384467E+03</totfact>
</mgrwt>
</event>
<event>
 9    1  0.2098759E-002  0.2757986E+03  0.7818608E-02  0.1098006E+00
          2   -1    0    0  501    0  0.00000000000E+00  0.00000000000E+00  0.28988871887E+03  0.28988871887E+03  0.00000000000E+00 0.  1.
         -2   -1    0    0    0  501 -0.00000000000E+00 -0.00000000000E+00 -0.65598355990E+02  0.65598355990E+02  0.00000000000E+00 0.  1.
         36    2    1    2    0    0  0.00000000000E+00  0.71054273576E-14  0.22429036288E+03  0.35548707486E+03  0.27579864668E+03 0.  0.
         25    2    3    3    0    0 -0.15610711459E+02 -0.38097766321E+02  0.44791402093E+02  0.13217782405E+03  0.11734382540E+03 0.  0.
         25    2    3    3    0    0  0.15610711459E+02  0.38097766321E+02  0.17949896079E+03  0.22330925081E+03  0.12630126864E+03 0.  0.
          5    1    4    4  502    0  0.44467072438E+02 -0.30638719926E+02  0.46522863320E+02  0.71431915146E+02  0.47000000000E+01 0. -1.
         -5    1    4    4    0  502 -0.60077783897E+02 -0.74590463952E+01 -0.17314612269E+01  0.60745908908E+02  0.47000000000E+01 0. -1.
          5    1    5    5  503    0 -0.37805522579E+02  0.43300753874E+02  0.31296626405E+02  0.65618455086E+02  0.47000000000E+01 0. -1.
         -5    1    5    5    0  503  0.53416234038E+02 -0.52029875528E+01  0.14820233438E+03  0.15769079572E+03  0.47000000000E+01 0. -1.
<mgrwt>
<rscale>  0 0.27579865E+03</rscale>
<asrwt>0</asrwt>
<pdfrwt beam="1">  1        2 0.44598264E-01 0.27579865E+03</pdfrwt>
<pdfrwt beam="2">  1       -2 0.10092055E-01 0.27579865E+03</pdfrwt>
<totfact> 0.73670152E+03</totfact>
</mgrwt>
</event>
<event>
 9    1  0.2098759E-002  0.2743661E+03  0.7818608E-02  0.1098806E+00
          2   -1    0    0  501    0  0.00000000000E+00  0.00000000000E+00  0.17737556725E+04  0.17737556725E+04  0.00000000000E+00 0.  1.
         -2   -1    0    0    0  501 -0.00000000000E+00 -0.00000000000E+00 -0.10609795235E+02  0.10609795235E+02  0.00000000000E+00 0.  1.
         36    2    1    2    0    0 -0.71054273576E-14 -0.35527136788E-14  0.17631458773E+04  0.17843654677E+04  0.27436606555E+03 0.  0.
         25    2    3    3    0    0 -0.14890662704E+02 -0.29243776799E+02  0.59531016779E+03  0.60936459875E+03  0.12591301767E+03 0.  0.
         25    2    3    3    0    0  0.14890662704E+02  0.29243776799E+02  0.11678357095E+04  0.11750008690E+04  0.12533901017E+03 0.  0.
          5    1    4    4  502    0 -0.33097405199E+02 -0.55083132537E+02  0.15449928797E+03  0.16739686289E+03  0.47000000000E+01 0. -1.
         -5    1    4    4    0  502  0.18206742495E+02  0.25839355738E+02  0.44081087982E+03  0.44196773586E+03  0.47000000000E+01 0. -1.
          5    1    5    5  503    0 -0.86827823912E+01 -0.12788729952E+01  0.43464779180E+01  0.10863153156E+02  0.47000000000E+01 0. -1.
         -5    1    5    5    0  503  0.23573445096E+02  0.30522649794E+02  0.11634892316E+04  0.11641377158E+04  0.47000000000E+01 0. -1.
<mgrwt>
<rscale>  0 0.27436607E+03</rscale>
<asrwt>0</asrwt>
<pdfrwt beam="1">  1        2 0.27288525E+00 0.27436607E+03</pdfrwt>
<pdfrwt beam="2">  1       -2 0.16322776E-02 0.27436607E+03</pdfrwt>
<totfact> 0.10182518E+04</totfact>
</mgrwt>
</event>
<event>
 9    1  0.2098759E-002  0.2751626E+03  0.7818608E-02  0.1098361E+00
         -1   -1    0    0    0  501 -0.00000000000E+00  0.00000000000E+00  0.14194581867E+04  0.14194581867E+04  0.00000000000E+00 0.  1.
          1   -1    0    0  501    0  0.00000000000E+00 -0.00000000000E+00 -0.13335094045E+02  0.13335094045E+02  0.00000000000E+00 0.  1.
         36    2    1    2    0    0 -0.71054273576E-14  0.00000000000E+00  0.14061230927E+04  0.14327932808E+04  0.27516255859E+03 0.  0.
         25    2    3    3    0    0 -0.38924790575E+02  0.74013874102E+02  0.91751168821E+03  0.92958359137E+03  0.12371241841E+03 0.  0.
         25    2    3    3    0    0  0.38924790575E+02 -0.74013874102E+02  0.48861140448E+03  0.50320968941E+03  0.86519905471E+02 0.  0.
          5    1    4    4  502    0 -0.76988721538E+02  0.56248711367E+02  0.44170960540E+03  0.45190778515E+03  0.47000000000E+01 0. -1.
         -5    1    4    4    0  502  0.38063930963E+02  0.17765162735E+02  0.47580208280E+03  0.47767580622E+03  0.47000000000E+01 0. -1.
          5    1    5    5  503    0  0.24787824497E+02  0.12238034927E+02  0.67406968510E+02  0.73006815750E+02  0.47000000000E+01 0. -1.
         -5    1    5    5    0  503  0.14136966078E+02 -0.86251909029E+02  0.42120443597E+03  0.43020287366E+03  0.47000000000E+01 0. -1.
<mgrwt>
<rscale>  0 0.27516256E+03</rscale>
<asrwt>0</asrwt>
<pdfrwt beam="1">  1        1 0.20515541E-02 0.27516256E+03</pdfrwt>
<pdfrwt beam="2">  1       -1 0.21837806E+00 0.27516256E+03</pdfrwt>
<totfact> 0.73718258E+02</totfact>
</mgrwt>
</event>
<event>
 9    1  0.2098759E-002  0.2676854E+03  0.7818608E-02  0.1102612E+00
         -2   -1    0    0    0  501 -0.00000000000E+00  0.00000000000E+00  0.17592900981E+03  0.17592900981E+03  0.00000000000E+00 0. -1.
          2   -1    0    0  501    0  0.00000000000E+00 -0.00000000000E+00 -0.10182438925E+03  0.10182438925E+03  0.00000000000E+00 0. -1.
         36    2    1    2    0    0 -0.35527136788E-14  0.71054273576E-14  0.74104620555E+02  0.27775339906E+03  0.26768536737E+03 0.  0.
         25    2    3    3    0    0  0.31922537460E+02 -0.20168064074E+02  0.46136376285E+02  0.14225853590E+03  0.12916317824E+03 0.  0.
         25    2    3    3    0    0 -0.31922537460E+02  0.20168064074E+02  0.27968244270E+02  0.13549486317E+03  0.12708593963E+03 0.  0.
          5    1    4    4  502    0 -0.16924064799E+02  0.45733598603E+02  0.32953822671E+02  0.59042615450E+02  0.47000000000E+01 0.  1.
         -5    1    4    4    0  502  0.48846602259E+02 -0.65901662677E+02  0.13182553614E+02  0.83215920446E+02  0.47000000000E+01 0.  1.
          5    1    5    5  503    0 -0.18736497103E+02 -0.46715443374E+02 -0.17411554476E+02  0.53466262283E+02  0.47000000000E+01 0. -1.
         -5    1    5    5    0  503 -0.13186040357E+02  0.66883507448E+02  0.45379798746E+02  0.82028600884E+02  0.47000000000E+01 0. -1.
<mgrwt>
<rscale>  0 0.26768537E+03</rscale>
<asrwt>0</asrwt>
<pdfrwt beam="1">  1        2 0.15665291E-01 0.26768537E+03</pdfrwt>
<pdfrwt beam="2">  1       -2 0.27066002E-01 0.26768537E+03</pdfrwt>
<totfact> 0.45278595E+03</totfact>
</mgrwt>
</event>
<event>
 9    1  0.2098759E-002  0.2757620E+03  0.7818608E-02  0.1098026E+00
         -2   -1    0    0    0  501 -0.00000000000E+00  0.00000000000E+00  0.18406922804E+02  0.18406922804E+02  0.00000000000E+00 0. -1.
          2   -1    0    0  501    0  0.00000000000E+00 -0.00000000000E+00 -0.10328274025E+04  0.10328274025E+04  0.00000000000E+00 0. -1.
         36    2    1    2    0    0  0.00000000000E+00  0.00000000000E+00 -0.10144204797E+04  0.10512343253E+04  0.27576202979E+03 0.  0.
         25    2    3    3    0    0  0.38172852781E+02 -0.27521111728E+02 -0.66249778253E+03  0.67467350215E+03  0.11860204201E+03 0.  0.
         25    2    3    3    0    0 -0.38172852781E+02  0.27521111728E+02 -0.35192269717E+03  0.37656082316E+03  0.12543480567E+03 0.  0.
          5    1    4    4  502    0  0.57179769384E+02 -0.42499711711E+02 -0.62922791187E+03  0.63326582618E+03  0.47000000000E+01 0. -1.
         -5    1    4    4    0  502 -0.19006916603E+02  0.14978599983E+02 -0.33269870655E+02  0.41407675974E+02  0.47000000000E+01 0. -1.
          5    1    5    5  503    0 -0.45923121085E+02  0.73440818514E+02 -0.21400150241E+03  0.23091387985E+03  0.47000000000E+01 0.  1.
         -5    1    5    5    0  503  0.77502683034E+01 -0.45919706786E+02 -0.13792119476E+03  0.14564694331E+03  0.47000000000E+01 0.  1.
<mgrwt>
<rscale>  0 0.27576203E+03</rscale>
<asrwt>0</asrwt>
<pdfrwt beam="1">  1        2 0.15889658E+00 0.27576203E+03</pdfrwt>
<pdfrwt beam="2">  1       -2 0.28318333E-02 0.27576203E+03</pdfrwt>
<totfact> 0.11547358E+04</totfact>
</mgrwt>
</event>
<event>
 9    1  0.2098759E-002  0.2754899E+03  0.7818608E-02  0.1098178E+00
         -2   -1    0    0    0  501 -0.00000000000E+00  0.00000000000E+00  0.22843637253E+03  0.22843637253E+03  0.00000000000E+00 0. -1.
          2   -1    0    0  501    0  0.00000000000E+00 -0.00000000000E+00 -0.83058915309E+02  0.83058915309E+02  0.00000000000E+00 0. -1.
         36    2    1    2    0    0 -0.71054273576E-14  0.71054273576E-14  0.14537745723E+03  0.31149528784E+03  0.27548994406E+03 0.  0.
         25    2    3    3    0    0  0.20045405430E+02 -0.48451694101E+02  0.80912166219E+02  0.15927411721E+03  0.12677571072E+03 0.  0.
         25    2    3    3    0    0 -0.20045405430E+02  0.48451694101E+02  0.64465291007E+02  0.15222117064E+03  0.12753872395E+03 0.  0.
          5    1    4    4  502    0  0.71008513646E+02 -0.25825137917E+02  0.23898134083E+02  0.79387389246E+02  0.47000000000E+01 0. -1.
         -5    1    4    4    0  502 -0.50963108216E+02 -0.22626556184E+02  0.57014032136E+02  0.79886727960E+02  0.47000000000E+01 0. -1.
          5    1    5    5  503    0  0.23460708730E+02  0.22271739565E+02  0.89595517588E+02  0.95372333563E+02  0.47000000000E+01 0.  1.
         -5    1    5    5    0  503 -0.43506114160E+02  0.26179954536E+02 -0.25130226581E+02  0.56848837075E+02  0.47000000000E+01 0.  1.
<mgrwt>
<rscale>  0 0.27548994E+03</rscale>
<asrwt>0</asrwt>
<pdfrwt beam="1">  1        2 0.12778295E-01 0.27548994E+03</pdfrwt>
<pdfrwt beam="2">  1       -2 0.35144057E-01 0.27548994E+03</pdfrwt>
<totfact> 0.35885804E+03</totfact>
</mgrwt>
</event>
<event>
 9    1  0.2098759E-002  0.2749454E+03  0.7818608E-02  0.1098482E+00
         -1   -1    0    0    0  501 -0.00000000000E+00  0.00000000000E+00  0.47045848227E+02  0.47045848227E+02  0.00000000000E+00 0. -1.
          1   -1    0    0  501    0  0.00000000000E+00 -0.00000000000E+00 -0.40170915672E+03  0.40170915672E+03  0.00000000000E+00 0. -1.
         36    2    1    2    0    0  0.00000000000E+00  0.00000000000E+00 -0.35466330849E+03  0.44875500494E+03  0.27494543472E+03 0.  0.
         25    2    3    3    0    0  0.32368288578E+02  0.31746419370E+02 -0.13990632801E+03  0.19640899987E+03  0.13018130957E+03 0.  0.
         25    2    3    3    0    0 -0.32368288578E+02 -0.31746419370E+02 -0.21475698047E+03  0.25234600508E+03  0.12450865178E+03 0.  0.
          5    1    4    4  502    0  0.32981888584E+02  0.81389993649E+02 -0.91442758820E+02  0.12687002870E+03  0.47000000000E+01 0.  1.
         -5    1    4    4    0  502 -0.61360000653E+00 -0.49643574279E+02 -0.48463569195E+02  0.69538971169E+02  0.47000000000E+01 0.  1.
          5    1    5    5  503    0 -0.36005642757E+01 -0.72690583871E+02 -0.17024437422E+03  0.18520832055E+03  0.47000000000E+01 0.  1.
         -5    1    5    5    0  503 -0.28767724302E+02  0.40944164501E+02 -0.44512606251E+02  0.67137684525E+02  0.47000000000E+01 0.  1.
<mgrwt>
<rscale>  0 0.27494543E+03</rscale>
<asrwt>0</asrwt>
<pdfrwt beam="1">  1        1 0.61801410E-01 0.27494543E+03</pdfrwt>
<pdfrwt beam="2">  1       -1 0.72378227E-02 0.27494543E+03</pdfrwt>
<totfact> 0.60145942E+03</totfact>
</mgrwt>
</event>
<event>
 9    1  0.2098759E-002  0.2751988E+03  0.7818608E-02  0.1098341E+00
         -1   -1    0    0    0  501 -0.00000000000E+00  0.00000000000E+00  0.35831781537E+02  0.35831781537E+02  0.00000000000E+00 0.  1.
          1   -1    0    0  501    0  0.00000000000E+00 -0.00000000000E+00 -0.52840219112E+03  0.52840219112E+03  0.00000000000E+00 0.  1.
         36    2    1    2    0    0  0.00000000000E+00  0.00000000000E+00 -0.49257040958E+03  0.56423397266E+03  0.27519877816E+03 0.  0.
         25    2    3    3    0    0  0.15375334634E+02 -0.17047030355E+02 -0.13057936084E+03  0.18079274743E+03  0.12291479117E+03 0.  0.
         25    2    3    3    0    0 -0.15375334634E+02  0.17047030355E+02 -0.36199104874E+03  0.38344122522E+03  0.12434891102E+03 0.  0.
          5    1    4    4  502    0 -0.32406465038E+02  0.15464295965E+02  0.18135327306E+01  0.36258824125E+02  0.47000000000E+01 0. -1.
         -5    1    4    4    0  502  0.47781799672E+02 -0.32511326319E+02 -0.13239289357E+03  0.14453392331E+03  0.47000000000E+01 0. -1.
          5    1    5    5  503    0 -0.41218225189E+02  0.40257455698E+02 -0.76905727675E+02  0.96209073253E+02  0.47000000000E+01 0. -1.
         -5    1    5    5    0  503  0.25842890555E+02 -0.23210425343E+02 -0.28508532107E+03  0.28723215197E+03  0.47000000000E+01 0. -1.
<mgrwt>
<rscale>  0 0.27519878E+03</rscale>
<asrwt>0</asrwt>
<pdfrwt beam="1">  1        1 0.81292640E-01 0.27519878E+03</pdfrwt>
<pdfrwt beam="2">  1       -1 0.55125821E-02 0.27519878E+03</pdfrwt>
<totfact> 0.63381656E+03</totfact>
</mgrwt>
</event>
<event>
 9    1  0.2098759E-002  0.2746129E+03  0.7818608E-02  0.1098668E+00
         -2   -1    0    0    0  501 -0.00000000000E+00  0.00000000000E+00  0.12307307892E+03  0.12307307892E+03  0.00000000000E+00 0. -1.
          2   -1    0    0  501    0  0.00000000000E+00 -0.00000000000E+00 -0.15318593199E+03  0.15318593199E+03  0.00000000000E+00 0. -1.
         36    2    1    2    0    0  0.00000000000E+00 -0.71054273576E-14 -0.30112853066E+02  0.27625901091E+03  0.27461292247E+03 0.  0.
         25    2    3    3    0    0 -0.77591329981E+01 -0.34371659641E+02 -0.51239624597E+02  0.14290089605E+03  0.12866060715E+03 0.  0.
         25    2    3    3    0    0  0.77591329981E+01  0.34371659641E+02  0.21126771532E+02  0.13335811486E+03  0.12687171155E+03 0.  0.
          5    1    4    4  502    0 -0.37486329604E+02 -0.16287030984E+02 -0.84848308137E+02  0.94296435135E+02  0.47000000000E+01 0.  1.
         -5    1    4    4    0  502  0.29727196606E+02 -0.18084628657E+02  0.33608683539E+02  0.48604460916E+02  0.47000000000E+01 0.  1.
          5    1    5    5  503    0 -0.11212269653E+02  0.67125814085E+02 -0.25757176918E+02  0.72918530362E+02  0.47000000000E+01 0. -1.
         -5    1    5    5    0  503  0.18971402651E+02 -0.32754154444E+02  0.46883948450E+02  0.60439584497E+02  0.47000000000E+01 0. -1.
<mgrwt>
<rscale>  0 0.27461292E+03</rscale>
<asrwt>0</asrwt>
<pdfrwt beam="1">  1        2 0.23567066E-01 0.27461292E+03</pdfrwt>
<pdfrwt beam="2">  1       -2 0.18934320E-01 0.27461292E+03</pdfrwt>
<totfact> 0.52743848E+03</totfact>
</mgrwt>
</event>
<event>
 9    1  0.2098759E-002  0.2776737E+03  0.7818608E-02  0.1096966E+00
         -2   -1    0    0    0  501 -0.00000000000E+00  0.00000000000E+00  0.67872945204E+01  0.67872945204E+01  0.00000000000E+00 0. -1.
          2   -1    0    0  501    0  0.00000000000E+00 -0.00000000000E+00 -0.28399634832E+04  0.28399634832E+04  0.00000000000E+00 0. -1.
         36    2    1    2    0    0  0.00000000000E+00 -0.35527136788E-14 -0.28331761886E+04  0.28467507777E+04  0.27767368321E+03 0.  0.
         25    2    3    3    0    0 -0.36138320881E+02 -0.29875309355E+02 -0.10023525136E+04  0.10110855681E+04  0.12403609165E+03 0.  0.
         25    2    3    3    0    0  0.36138320881E+02  0.29875309355E+02 -0.18308236750E+04  0.18356652096E+04  0.12471134855E+03 0.  0.
          5    1    4    4  502    0 -0.64352497463E+02  0.75084818045E+01 -0.29030751952E+03  0.29748641501E+03  0.47000000000E+01 0. -1.
         -5    1    4    4    0  502  0.28214176583E+02 -0.37383791159E+02 -0.71204499410E+03  0.71359915305E+03  0.47000000000E+01 0. -1.
          5    1    5    5  503    0  0.69644692956E+02  0.30602511078E+02 -0.66548824732E+03  0.66983848371E+03  0.47000000000E+01 0. -1.
         -5    1    5    5    0  503 -0.33506372075E+02 -0.72720172269E+00 -0.11653354277E+04  0.11658267259E+04  0.47000000000E+01 0. -1.
<mgrwt>
<rscale>  0 0.27767368E+03</rscale>
<asrwt>0</asrwt>
<pdfrwt beam="1">  1        2 0.43691811E+00 0.27767368E+03</pdfrwt>
<pdfrwt beam="2">  1       -2 0.10441976E-02 0.27767368E+03</pdfrwt>
<totfact> 0.51732626E+03</totfact>
</mgrwt>
</event>
<event>
 9    1  0.2098759E-002  0.2888927E+03  0.7818608E-02  0.1090929E+00
         -2   -1    0    0    0  501 -0.00000000000E+00  0.00000000000E+00  0.12496757930E+03  0.12496757930E+03  0.00000000000E+00 0. -1.
          2   -1    0    0  501    0  0.00000000000E+00 -0.00000000000E+00 -0.16696123657E+03  0.16696123657E+03  0.00000000000E+00 0. -1.
         36    2    1    2    0    0  0.00000000000E+00  0.00000000000E+00 -0.41993657271E+02  0.29192881587E+03  0.28889265529E+03 0.  0.
         25    2    3    3    0    0  0.24987097326E+02  0.35619001771E+02 -0.64423044266E+02  0.15177773516E+03  0.13035752352E+03 0.  0.
         25    2    3    3    0    0 -0.24987097326E+02 -0.35619001771E+02  0.22429386995E+02  0.14015108071E+03  0.13132471094E+03 0.  0.
          5    1    4    4  502    0  0.21088948703E+02 -0.45820706510E+02 -0.52605694018E+01  0.50931763104E+02  0.47000000000E+01 0.  1.
         -5    1    4    4    0  502  0.38981486230E+01  0.81439708281E+02 -0.59162474865E+02  0.10084597205E+03  0.47000000000E+01 0.  1.
          5    1    5    5  503    0  0.17218150078E+01 -0.49277398638E+02 -0.44544835466E+02  0.66615006043E+02  0.47000000000E+01 0. -1.
         -5    1    5    5    0  503 -0.26708912334E+02  0.13658396867E+02  0.66974222461E+02  0.73536074666E+02  0.47000000000E+01 0. -1.
<mgrwt>
<rscale>  0 0.28889266E+03</rscale>
<asrwt>0</asrwt>
<pdfrwt beam="1">  1        2 0.25686344E-01 0.28889266E+03</pdfrwt>
<pdfrwt beam="2">  1       -2 0.19225781E-01 0.28889266E+03</pdfrwt>
<totfact> 0.46742017E+03</totfact>
</mgrwt>
</event>
<event>
 9    1  0.2098759E-002  0.2739371E+03  0.7818608E-02  0.1099047E+00
          3   -1    0    0  501    0  0.00000000000E+00  0.00000000000E+00  0.50226359670E+03  0.50226359670E+03  0.00000000000E+00 0. -1.
         -3   -1    0    0    0  501 -0.00000000000E+00 -0.00000000000E+00 -0.37351664501E+02  0.37351664501E+02  0.00000000000E+00 0. -1.
         36    2    1    2    0    0  0.00000000000E+00  0.71054273576E-14  0.46491193220E+03  0.53961526120E+03  0.27393708296E+03 0.  0.
         25    2    3    3    0    0  0.56137537656E+02  0.20490441097E+02  0.11513208380E+03  0.16352037071E+03  0.99560200917E+02 0.  0.
         25    2    3    3    0    0 -0.56137537656E+02 -0.20490441097E+02  0.34977984840E+03  0.37609489049E+03  0.12461999437E+03 0.  0.
          5    1    4    4  502    0  0.14975951364E+02 -0.14188417248E+01 -0.17084457541E+02  0.23243513516E+02  0.47000000000E+01 0.  1.
         -5    1    4    4    0  502  0.41161586292E+02  0.21909282822E+02  0.13221654134E+03  0.14027685719E+03  0.47000000000E+01 0.  1.
          5    1    5    5  503    0  0.58869479088E+01  0.11621764746E+02  0.26836908528E+03  0.26872621291E+03  0.47000000000E+01 0. -1.
         -5    1    5    5    0  503 -0.62024485565E+02 -0.32112205843E+02  0.81410763123E+02  0.10736867758E+03  0.47000000000E+01 0. -1.
<mgrwt>
<rscale>  0 0.27393708E+03</rscale>
<asrwt>0</asrwt>
<pdfrwt beam="1">  1        3 0.77271318E-01 0.27393708E+03</pdfrwt>
<pdfrwt beam="2">  1       -3 0.57464103E-02 0.27393708E+03</pdfrwt>
<totfact> 0.74601862E+02</totfact>
</mgrwt>
</event>
<event>
 9    1  0.2098759E-002  0.2754924E+03  0.7818608E-02  0.1098177E+00
          2   -1    0    0  501    0  0.00000000000E+00  0.00000000000E+00  0.98194349952E+03  0.98194349952E+03  0.00000000000E+00 0. -1.
         -2   -1    0    0    0  501 -0.00000000000E+00 -0.00000000000E+00 -0.19322915082E+02  0.19322915082E+02  0.00000000000E+00 0. -1.
         36    2    1    2    0    0  0.00000000000E+00  0.00000000000E+00  0.96262058444E+03  0.10012664146E+04  0.27549236546E+03 0.  0.
         25    2    3    3    0    0 -0.53646430444E+02 -0.11253518641E+02  0.34144947922E+03  0.36597106396E+03  0.11976014200E+03 0.  0.
         25    2    3    3    0    0  0.53646430444E+02  0.11253518641E+02  0.62117110522E+03  0.63529535065E+03  0.12141688274E+03 0.  0.
          5    1    4    4  502    0  0.16478942365E+02 -0.45227178488E+02  0.18374411440E+03  0.19000274417E+03  0.47000000000E+01 0. -1.
         -5    1    4    4    0  502 -0.70125372808E+02  0.33973659848E+02  0.15770536482E+03  0.17596831978E+03  0.47000000000E+01 0. -1.
          5    1    5    5  503    0 -0.38944900369E+02  0.10065364670E+02  0.18924719219E+03  0.19353192652E+03  0.47000000000E+01 0. -1.
         -5    1    5    5    0  503  0.92591330813E+02  0.11881539706E+01  0.43192391303E+03  0.44176342413E+03  0.47000000000E+01 0. -1.
<mgrwt>
<rscale>  0 0.27549237E+03</rscale>
<asrwt>0</asrwt>
<pdfrwt beam="1">  1        2 0.15106819E+00 0.27549237E+03</pdfrwt>
<pdfrwt beam="2">  1       -2 0.29727569E-02 0.27549237E+03</pdfrwt>
<totfact> 0.11539383E+04</totfact>
</mgrwt>
</event>
<event>
 9    1  0.2098759E-002  0.2739047E+03  0.7818608E-02  0.1099065E+00
         -3   -1    0    0    0  501 -0.00000000000E+00  0.00000000000E+00  0.13206679327E+03  0.13206679327E+03  0.00000000000E+00 0.  1.
          3   -1    0    0  501    0  0.00000000000E+00 -0.00000000000E+00 -0.14201863985E+03  0.14201863985E+03  0.00000000000E+00 0.  1.
         36    2    1    2    0    0  0.00000000000E+00 -0.71054273576E-14 -0.99518465821E+01  0.27408543312E+03  0.27390470131E+03 0.  0.
         25    2    3    3    0    0  0.88113005564E+01  0.36660386787E+02 -0.37315793574E+02  0.13891440868E+03  0.12838660955E+03 0.  0.
         25    2    3    3    0    0 -0.88113005564E+01 -0.36660386787E+02  0.27363946992E+02  0.13517102444E+03  0.12688891707E+03 0.  0.
          5    1    4    4  502    0 -0.47770063982E+02  0.12368167674E+02 -0.55621469628E+02  0.74503613791E+02  0.47000000000E+01 0. -1.
         -5    1    4    4    0  502  0.56581364538E+02  0.24292219113E+02  0.18305676053E+02  0.64410794889E+02  0.47000000000E+01 0. -1.
          5    1    5    5  503    0 -0.23591810270E+02 -0.40297102725E+02 -0.42620843998E+02  0.63396027817E+02  0.47000000000E+01 0.  1.
         -5    1    5    5    0  503  0.14780509713E+02  0.36367159379E+01  0.69984790990E+02  0.71774996622E+02  0.47000000000E+01 0.  1.
<mgrwt>
<rscale>  0 0.27390470E+03</rscale>
<asrwt>0</asrwt>
<pdfrwt beam="1">  1        3 0.21849021E-01 0.27390470E+03</pdfrwt>
<pdfrwt beam="2">  1       -3 0.20317968E-01 0.27390470E+03</pdfrwt>
<totfact> 0.10632535E+03</totfact>
</mgrwt>
</event>
<event>
 9    1  0.2098759E-002  0.2753684E+03  0.7818608E-02  0.1098246E+00
          2   -1    0    0  501    0  0.00000000000E+00  0.00000000000E+00  0.10705928635E+04  0.10705928635E+04  0.00000000000E+00 0.  1.
         -2   -1    0    0    0  501 -0.00000000000E+00 -0.00000000000E+00 -0.17706951222E+02  0.17706951222E+02  0.00000000000E+00 0.  1.
         36    2    1    2    0    0 -0.71054273576E-14  0.00000000000E+00  0.10528859123E+04  0.10882998148E+04  0.27536837591E+03 0.  0.
         25    2    3    3    0    0 -0.24937645675E+02 -0.41206624534E+02  0.64898727280E+03  0.66291748918E+03  0.12631407335E+03 0.  0.
         25    2    3    3    0    0  0.24937645675E+02  0.41206624534E+02  0.40389863953E+03  0.42538232559E+03  0.12448349223E+03 0.  0.
          5    1    4    4  502    0 -0.34117971038E+02  0.25255119798E+02  0.46614799253E+03  0.46810030759E+03  0.47000000000E+01 0.  1.
         -5    1    4    4    0  502  0.91803253637E+01 -0.66461744332E+02  0.18283928027E+03  0.19481718159E+03  0.47000000000E+01 0.  1.
          5    1    5    5  503    0  0.59946795547E+02 -0.15912802935E+02  0.14229871136E+03  0.15529922359E+03  0.47000000000E+01 0. -1.
         -5    1    5    5    0  503 -0.35009149872E+02  0.57119427468E+02  0.26159992817E+03  0.27008310200E+03  0.47000000000E+01 0. -1.
<mgrwt>
<rscale>  0 0.27536838E+03</rscale>
<asrwt>0</asrwt>
<pdfrwt beam="1">  1        2 0.16470654E+00 0.27536838E+03</pdfrwt>
<pdfrwt beam="2">  1       -2 0.27241472E-02 0.27536838E+03</pdfrwt>
<totfact> 0.11610402E+04</totfact>
</mgrwt>
</event>
<event>
 8    1  0.2098759E-002  0.4028090E+03  0.7818608E-02  0.1042811E+00
          2   -1    0    0  501    0  0.00000000000E+00  0.00000000000E+00  0.69479591673E+03  0.69479591673E+03  0.00000000000E+00 0. -1.
         -2   -1    0    0    0  501 -0.00000000000E+00 -0.00000000000E+00 -0.58382286924E+02  0.58382286924E+02  0.00000000000E+00 0. -1.
         25    2    1    2    0    0 -0.45942929263E+02  0.82592304901E+02  0.89420624460E+02  0.18324728997E+03  0.12903983736E+03 0.  0.
         25    2    1    2    0    0  0.45942929263E+02 -0.82592304901E+02  0.54699300535E+03  0.56993091368E+03  0.12918071410E+03 0.  0.
          5    1    3    3  502    0 -0.70250494647E+02  0.60633465880E+02  0.55488388021E+01  0.93082913549E+02  0.47000000000E+01 0. -1.
         -5    1    3    3    0  502  0.24307565383E+02  0.21958839020E+02  0.83871785658E+02  0.90164376422E+02  0.47000000000E+01 0. -1.
          5    1    4    4  503    0  0.89387695478E+02 -0.67114851043E+02  0.42333292164E+03  0.43786689288E+03  0.47000000000E+01 0.  1.
         -5    1    4    4    0  503 -0.43444766215E+02 -0.15477453858E+02  0.12366008371E+03  0.13206402081E+03  0.47000000000E+01 0.  1.
<mgrwt>
<rscale>  0 0.40280901E+03</rscale>
<asrwt>0</asrwt>
<pdfrwt beam="1">  1        2 0.10689167E+00 0.40280901E+03</pdfrwt>
<pdfrwt beam="2">  1       -2 0.89818908E-02 0.40280901E+03</pdfrwt>
<totfact> 0.33515140E+03</totfact>
</mgrwt>
</event>
<event>
 9    1  0.2098759E-002  0.2684110E+03  0.7818608E-02  0.1102192E+00
          2   -1    0    0  501    0  0.00000000000E+00  0.00000000000E+00  0.14938431122E+02  0.14938431122E+02  0.00000000000E+00 0.  1.
         -2   -1    0    0    0  501 -0.00000000000E+00 -0.00000000000E+00 -0.12056900216E+04  0.12056900216E+04  0.00000000000E+00 0.  1.
         36    2    1    2    0    0 -0.14210854715E-13  0.00000000000E+00 -0.11907515905E+04  0.12206284527E+04  0.26841100829E+03 0.  0.
         25    2    3    3    0    0  0.43612670660E+02  0.40302733311E+01 -0.47458438288E+03  0.49268500687E+03  0.12485940645E+03 0.  0.
         25    2    3    3    0    0 -0.43612670660E+02 -0.40302733311E+01 -0.71616720758E+03  0.72794344583E+03  0.12283274389E+03 0.  0.
          5    1    4    4  502    0 -0.14573110566E+02  0.25637855458E+02 -0.25386553145E+02  0.39194926517E+02  0.47000000000E+01 0.  1.
         -5    1    4    4    0  502  0.58185781226E+02 -0.21607582127E+02 -0.44919782974E+03  0.45349008036E+03  0.47000000000E+01 0.  1.
          5    1    5    5  503    0 -0.68192962323E+02  0.34438587630E+02 -0.31527171009E+03  0.32442971135E+03  0.47000000000E+01 0.  1.
         -5    1    5    5    0  503  0.24580291664E+02 -0.38468860961E+02 -0.40089549749E+03  0.40351373448E+03  0.47000000000E+01 0.  1.
<mgrwt>
<rscale>  0 0.26841101E+03</rscale>
<asrwt>0</asrwt>
<pdfrwt beam="1">  1        2 0.22982199E-02 0.26841101E+03</pdfrwt>
<pdfrwt beam="2">  1       -2 0.18549080E+00 0.26841101E+03</pdfrwt>
<totfact> 0.80802256E+02</totfact>
</mgrwt>
</event>
<event>
 9    1  0.2098759E-002  0.2748642E+03  0.7818608E-02  0.1098528E+00
         -1   -1    0    0    0  501 -0.00000000000E+00  0.00000000000E+00  0.22348300831E+02  0.22348300831E+02  0.00000000000E+00 0.  1.
          1   -1    0    0  501    0  0.00000000000E+00 -0.00000000000E+00 -0.84514649666E+03  0.84514649666E+03  0.00000000000E+00 0.  1.
         36    2    1    2    0    0 -0.71054273576E-14  0.35527136788E-14 -0.82279819582E+03  0.86749479749E+03  0.27486424397E+03 0.  0.
         25    2    3    3    0    0  0.65777878019E+01 -0.19255207610E+02 -0.25069219685E+03  0.28128071012E+03  0.12592946444E+03 0.  0.
         25    2    3    3    0    0 -0.65777878019E+01  0.19255207610E+02 -0.57210599898E+03  0.58621408736E+03  0.12620480121E+03 0.  0.
          5    1    4    4  502    0  0.63078644084E+02  0.95061675105E+01 -0.12294859671E+03  0.13859195501E+03  0.47000000000E+01 0.  1.
         -5    1    4    4    0  502 -0.56500856282E+02 -0.28761375121E+02 -0.12774360014E+03  0.14268875511E+03  0.47000000000E+01 0.  1.
          5    1    5    5  503    0  0.27548303606E+02  0.53261677427E+02 -0.46250436463E+03  0.46639907012E+03  0.47000000000E+01 0. -1.
         -5    1    5    5    0  503 -0.34126091408E+02 -0.34006469817E+02 -0.10960163435E+03  0.11981501724E+03  0.47000000000E+01 0. -1.
<mgrwt>
<rscale>  0 0.27486424E+03</rscale>
<asrwt>0</asrwt>
<pdfrwt beam="1">  1        1 0.13002253E+00 0.27486424E+03</pdfrwt>
<pdfrwt beam="2">  1       -1 0.34382003E-02 0.27486424E+03</pdfrwt>
<totfact> 0.65027517E+03</totfact>
</mgrwt>
</event>
<event>
 9    1  0.2098759E-002  0.2817225E+03  0.7818608E-02  0.1094752E+00
         -2   -1    0    0    0  501 -0.00000000000E+00  0.00000000000E+00  0.12418476624E+02  0.12418476624E+02  0.00000000000E+00 0. -1.
          2   -1    0    0  501    0  0.00000000000E+00 -0.00000000000E+00 -0.15977723592E+04  0.15977723592E+04  0.00000000000E+00 0. -1.
         36    2    1    2    0    0  0.71054273576E-14  0.00000000000E+00 -0.15853538826E+04  0.16101908358E+04  0.28172254927E+03 0.  0.
         25    2    3    3    0    0  0.56983787348E+02  0.13859186454E+02 -0.64652382655E+03  0.66100112870E+03  0.12445965118E+03 0.  0.
         25    2    3    3    0    0 -0.56983787348E+02 -0.13859186454E+02 -0.93883005603E+03  0.94918970712E+03  0.12696454996E+03 0.  0.
          5    1    4    4  502    0  0.88167250605E+02  0.19624834333E+02 -0.30919864409E+03  0.32215600213E+03  0.47000000000E+01 0. -1.
         -5    1    4    4    0  502 -0.31183463257E+02 -0.57656478786E+01 -0.33732518246E+03  0.33884512656E+03  0.47000000000E+01 0. -1.
          5    1    5    5  503    0 -0.28107133932E+02  0.25587057776E+02 -0.77364192840E+02  0.86325064942E+02  0.47000000000E+01 0.  1.
         -5    1    5    5    0  503 -0.28876653416E+02 -0.39446244230E+02 -0.86146586318E+03  0.86286464218E+03  0.47000000000E+01 0.  1.
<mgrwt>
<rscale>  0 0.28172255E+03</rscale>
<asrwt>0</asrwt>
<pdfrwt beam="1">  1        2 0.24581104E+00 0.28172255E+03</pdfrwt>
<pdfrwt beam="2">  1       -2 0.19105356E-02 0.28172255E+03</pdfrwt>
<totfact> 0.10012030E+04</totfact>
</mgrwt>
</event>
<event>
 9    1  0.2098759E-002  0.2753783E+03  0.7818608E-02  0.1098240E+00
          1   -1    0    0  501    0  0.00000000000E+00  0.00000000000E+00  0.14741936269E+04  0.14741936269E+04  0.00000000000E+00 0.  1.
         -1   -1    0    0    0  501 -0.00000000000E+00 -0.00000000000E+00 -0.12860119161E+02  0.12860119161E+02  0.00000000000E+00 0.  1.
         36    2    1    2    0    0 -0.71054273576E-14 -0.10658141036E-13  0.14613335078E+04  0.14870537461E+04  0.27537832673E+03 0.  0.
         25    2    3    3    0    0  0.36853079443E+02  0.30350564488E+02  0.53177290501E+03  0.54800325451E+03  0.12347403864E+03 0.  0.
         25    2    3    3    0    0 -0.36853079443E+02 -0.30350564488E+02  0.92956060274E+03  0.93905049157E+03  0.12431253079E+03 0.  0.
          5    1    4    4  502    0  0.43391245864E+01  0.17818332473E+02  0.50076464563E+03  0.50112238155E+03  0.47000000000E+01 0.  1.
         -5    1    4    4    0  502  0.32513954857E+02  0.12532232015E+02  0.31008259379E+02  0.46880872959E+02  0.47000000000E+01 0.  1.
          5    1    5    5  503    0  0.62359432112E+01 -0.67659241252E+02  0.34218484597E+03  0.34889714634E+03  0.47000000000E+01 0.  1.
         -5    1    5    5    0  503 -0.43089022654E+02  0.37308676764E+02  0.58737575677E+03  0.59015334522E+03  0.47000000000E+01 0.  1.
<mgrwt>
<rscale>  0 0.27537833E+03</rscale>
<asrwt>0</asrwt>
<pdfrwt beam="1">  1        1 0.22679889E+00 0.27537833E+03</pdfrwt>
<pdfrwt beam="2">  1       -1 0.19784810E-02 0.27537833E+03</pdfrwt>
<totfact> 0.51863477E+03</totfact>
</mgrwt>
</event>
<event>
 9    1  0.2098759E-002  0.2782483E+03  0.7818608E-02  0.1096650E+00
         -2   -1    0    0    0  501 -0.00000000000E+00  0.00000000000E+00  0.25572678348E+03  0.25572678348E+03  0.00000000000E+00 0.  1.
          2   -1    0    0  501    0  0.00000000000E+00 -0.00000000000E+00 -0.75688300133E+02  0.75688300133E+02  0.00000000000E+00 0.  1.
         36    2    1    2    0    0  0.00000000000E+00  0.00000000000E+00  0.18003848335E+03  0.33141508361E+03  0.27824827432E+03 0.  0.
         25    2    3    3    0    0  0.55493414893E+01 -0.34210142848E+01  0.16526778290E+03  0.20622762745E+03  0.12318236777E+03 0.  0.
         25    2    3    3    0    0 -0.55493414893E+01  0.34210142848E+01  0.14770700451E+02  0.12518745617E+03  0.12414196333E+03 0.  0.
          5    1    4    4  502    0  0.44105293349E+02  0.19175144238E+02  0.15181683694E+03  0.15932170297E+03  0.47000000000E+01 0. -1.
         -5    1    4    4    0  502 -0.38555951859E+02 -0.22596158523E+02  0.13450945951E+02  0.46905924474E+02  0.47000000000E+01 0. -1.
          5    1    5    5  503    0 -0.61381894835E+02  0.21352092023E+02  0.12273393139E+02  0.66305165911E+02  0.47000000000E+01 0. -1.
         -5    1    5    5    0  503  0.55832553346E+02 -0.17931077738E+02  0.24973073119E+01  0.58882290256E+02  0.47000000000E+01 0. -1.
<mgrwt>
<rscale>  0 0.27824827E+03</rscale>
<asrwt>0</asrwt>
<pdfrwt beam="1">  1        2 0.11644354E-01 0.27824827E+03</pdfrwt>
<pdfrwt beam="2">  1       -2 0.39342581E-01 0.27824827E+03</pdfrwt>
<totfact> 0.32488134E+03</totfact>
</mgrwt>
</event>
<event>
 9    1  0.2098759E-002  0.2755716E+03  0.7818608E-02  0.1098132E+00
          3   -1    0    0  501    0  0.00000000000E+00  0.00000000000E+00  0.27450867933E+02  0.27450867933E+02  0.00000000000E+00 0. -1.
         -3   -1    0    0    0  501 -0.00000000000E+00 -0.00000000000E+00 -0.69159682668E+03  0.69159682668E+03  0.00000000000E+00 0. -1.
         36    2    1    2    0    0  0.00000000000E+00  0.00000000000E+00 -0.66414595874E+03  0.71904769461E+03  0.27557164696E+03 0.  0.
         25    2    3    3    0    0 -0.23207695323E+02 -0.70159246267E+02 -0.28992535033E+03  0.32417083361E+03  0.12477621423E+03 0.  0.
         25    2    3    3    0    0  0.23207695323E+02  0.70159246267E+02 -0.37422060841E+03  0.39487686100E+03  0.10210658469E+03 0.  0.
          5    1    4    4  502    0 -0.66833221869E+02 -0.73888583592E+01 -0.11663303444E+03  0.13470942616E+03  0.47000000000E+01 0.  1.
         -5    1    4    4    0  502  0.43625526546E+02 -0.62770387908E+02 -0.17329231589E+03  0.18946140745E+03  0.47000000000E+01 0.  1.
          5    1    5    5  503    0  0.63703062330E+01  0.39231802717E+01 -0.27008357402E+03  0.27022805017E+03  0.47000000000E+01 0.  1.
         -5    1    5    5    0  503  0.16837389090E+02  0.66236065995E+02 -0.10413703439E+03  0.12464881083E+03  0.47000000000E+01 0.  1.
<mgrwt>
<rscale>  0 0.27557165E+03</rscale>
<asrwt>0</asrwt>
<pdfrwt beam="1">  1        3 0.42232108E-02 0.27557165E+03</pdfrwt>
<pdfrwt beam="2">  1       -3 0.10639950E+00 0.27557165E+03</pdfrwt>
<totfact> 0.59303455E+02</totfact>
</mgrwt>
</event>
<event>
 9    1  0.2098759E-002  0.2762060E+03  0.7818608E-02  0.1097779E+00
          2   -1    0    0  501    0  0.00000000000E+00  0.00000000000E+00  0.49912982858E+03  0.49912982858E+03  0.00000000000E+00 0.  1.
         -2   -1    0    0    0  501 -0.00000000000E+00 -0.00000000000E+00 -0.38211375374E+02  0.38211375374E+02  0.00000000000E+00 0.  1.
         36    2    1    2    0    0  0.17763568394E-14  0.00000000000E+00  0.46091845320E+03  0.53734120395E+03  0.27620599009E+03 0.  0.
         25    2    3    3    0    0 -0.15335225653E+02  0.33876471048E+02  0.31886251915E+03  0.34393702101E+03  0.12343655808E+03 0.  0.
         25    2    3    3    0    0  0.15335225653E+02 -0.33876471048E+02  0.14205593405E+03  0.19340418294E+03  0.12586701371E+03 0.  0.
          5    1    4    4  502    0  0.46087619341E+01  0.61854190250E+02  0.74178042606E+02  0.96807301082E+02  0.47000000000E+01 0.  1.
         -5    1    4    4    0  502 -0.19943987587E+02 -0.27977719202E+02  0.24468447654E+03  0.24712971993E+03  0.47000000000E+01 0.  1.
          5    1    5    5  503    0 -0.39185372389E+02  0.26106690610E+02  0.72036187439E+02  0.86187905211E+02  0.47000000000E+01 0. -1.
         -5    1    5    5    0  503  0.54520598042E+02 -0.59983161658E+02  0.70019746615E+02  0.10721627773E+03  0.47000000000E+01 0. -1.
<mgrwt>
<rscale>  0 0.27620599E+03</rscale>
<asrwt>0</asrwt>
<pdfrwt beam="1">  1        2 0.76789200E-01 0.27620599E+03</pdfrwt>
<pdfrwt beam="2">  1       -2 0.58786735E-02 0.27620599E+03</pdfrwt>
<totfact> 0.94746007E+03</totfact>
</mgrwt>
</event>
<event>
 9    1  0.2098759E-002  0.2746684E+03  0.7818608E-02  0.1098637E+00
         -1   -1    0    0    0  501 -0.00000000000E+00  0.00000000000E+00  0.51105412499E+03  0.51105412499E+03  0.00000000000E+00 0.  1.
          1   -1    0    0  501    0  0.00000000000E+00 -0.00000000000E+00 -0.36905462230E+02  0.36905462230E+02  0.00000000000E+00 0.  1.
         36    2    1    2    0    0  0.00000000000E+00 -0.71054273576E-14  0.47414866276E+03  0.54795958722E+03  0.27466844528E+03 0.  0.
         25    2    3    3    0    0 -0.29815254072E+02  0.37307139906E+02  0.26700616679E+03  0.30220447364E+03  0.13324593322E+03 0.  0.
         25    2    3    3    0    0  0.29815254072E+02 -0.37307139906E+02  0.20714249598E+03  0.24575511359E+03  0.12331581469E+03 0.  0.
          5    1    4    4  502    0  0.28158462168E+01  0.47451642932E+02  0.26320275347E+03  0.26750208754E+03  0.47000000000E+01 0.  1.
         -5    1    4    4    0  502 -0.32631100288E+02 -0.10144503026E+02  0.38034133197E+01  0.34702386093E+02  0.47000000000E+01 0.  1.
          5    1    5    5  503    0 -0.45964682450E+02 -0.23551894771E+02  0.57791545205E+02  0.77649188516E+02  0.47000000000E+01 0.  1.
         -5    1    5    5    0  503  0.75779936522E+02 -0.13755245135E+02  0.14935095077E+03  0.16810592507E+03  0.47000000000E+01 0.  1.
<mgrwt>
<rscale>  0 0.27466845E+03</rscale>
<asrwt>0</asrwt>
<pdfrwt beam="1">  1        1 0.56777638E-02 0.27466845E+03</pdfrwt>
<pdfrwt beam="2">  1       -1 0.78623706E-01 0.27466845E+03</pdfrwt>
<totfact> 0.23544287E+03</totfact>
</mgrwt>
</event>
<event>
 9    1  0.2098759E-002  0.2742489E+03  0.7818608E-02  0.1098872E+00
          2   -1    0    0  501    0  0.00000000000E+00  0.00000000000E+00  0.11180050241E+04  0.11180050241E+04  0.00000000000E+00 0.  1.
         -2   -1    0    0    0  501 -0.00000000000E+00 -0.00000000000E+00 -0.16818452693E+02  0.16818452693E+02  0.00000000000E+00 0.  1.
         36    2    1    2    0    0  0.71054273576E-14  0.71054273576E-14  0.11011865714E+04  0.11348234768E+04  0.27424889870E+03 0.  0.
         25    2    3    3    0    0 -0.47678863163E+02  0.32736789911E+02  0.60940817808E+03  0.62417336508E+03  0.12193888124E+03 0.  0.
         25    2    3    3    0    0  0.47678863163E+02 -0.32736789911E+02  0.49177839332E+03  0.51065011171E+03  0.12479013200E+03 0.  0.
          5    1    4    4  502    0 -0.40451995931E+02  0.72831558046E+02  0.27845812359E+03  0.29069196139E+03  0.47000000000E+01 0.  1.
         -5    1    4    4    0  502 -0.72268672319E+01 -0.40094768134E+02  0.33095005449E+03  0.33348140369E+03  0.47000000000E+01 0.  1.
          5    1    5    5  503    0 -0.17743857157E+02  0.37057706582E+02  0.13083276141E+03  0.13721304436E+03  0.47000000000E+01 0. -1.
         -5    1    5    5    0  503  0.65422720321E+02 -0.69794496494E+02  0.36094563191E+03  0.37343706735E+03  0.47000000000E+01 0. -1.
<mgrwt>
<rscale>  0 0.27424890E+03</rscale>
<asrwt>0</asrwt>
<pdfrwt beam="1">  1        2 0.17200071E+00 0.27424890E+03</pdfrwt>
<pdfrwt beam="2">  1       -2 0.25874551E-02 0.27424890E+03</pdfrwt>
<totfact> 0.11749725E+04</totfact>
</mgrwt>
</event>
<event>
 9    1  0.2098759E-002  0.2746268E+03  0.7818608E-02  0.1098660E+00
         -3   -1    0    0    0  501 -0.00000000000E+00  0.00000000000E+00  0.61592122087E+03  0.61592122087E+03  0.00000000000E+00 0. -1.
          3   -1    0    0  501    0  0.00000000000E+00 -0.00000000000E+00 -0.30612640028E+02  0.30612640028E+02  0.00000000000E+00 0. -1.
         36    2    1    2    0    0  0.00000000000E+00  0.71054273576E-14  0.58530858084E+03  0.64653386090E+03  0.27462683496E+03 0.  0.
         25    2    3    3    0    0  0.23155871032E+02  0.45473909405E+02  0.43896606860E+03  0.45984839587E+03  0.12714270328E+03 0.  0.
         25    2    3    3    0    0 -0.23155871032E+02 -0.45473909405E+02  0.14634251224E+03  0.18668546503E+03  0.10407334512E+03 0.  0.
          5    1    4    4  502    0  0.63917717506E+02 -0.27121875763E+01  0.30516247191E+03  0.31183177329E+03  0.47000000000E+01 0. -1.
         -5    1    4    4    0  502 -0.40761846474E+02  0.48186096982E+02  0.13380359669E+03  0.14801662257E+03  0.47000000000E+01 0. -1.
          5    1    5    5  503    0 -0.55588320124E+02 -0.15610212432E+02  0.12437582378E+03  0.13720486729E+03  0.47000000000E+01 0.  1.
         -5    1    5    5    0  503  0.32432449092E+02 -0.29863696973E+02  0.21966688456E+02  0.49480597740E+02  0.47000000000E+01 0.  1.
<mgrwt>
<rscale>  0 0.27462683E+03</rscale>
<asrwt>0</asrwt>
<pdfrwt beam="1">  1        3 0.47096374E-02 0.27462683E+03</pdfrwt>
<pdfrwt beam="2">  1       -3 0.94757102E-01 0.27462683E+03</pdfrwt>
<totfact> 0.65100185E+02</totfact>
</mgrwt>
</event>
<event>
 9    1  0.2098759E-002  0.2755522E+03  0.7818608E-02  0.1098143E+00
         -3   -1    0    0    0  501 -0.00000000000E+00  0.00000000000E+00  0.29294704642E+03  0.29294704642E+03  0.00000000000E+00 0. -1.
          3   -1    0    0  501    0  0.00000000000E+00 -0.00000000000E+00 -0.64797545185E+02  0.64797545185E+02  0.00000000000E+00 0. -1.
         36    2    1    2    0    0  0.00000000000E+00 -0.71054273576E-14  0.22814950123E+03  0.35774459160E+03  0.27555216912E+03 0.  0.
         25    2    3    3    0    0  0.18403085828E+02 -0.48024506973E+02  0.14117280713E+03  0.19528003614E+03  0.12473774169E+03 0.  0.
         25    2    3    3    0    0 -0.18403085828E+02  0.48024506973E+02  0.86976694101E+02  0.16246455547E+03  0.12721933669E+03 0.  0.
          5    1    4    4  502    0  0.61734988051E+02 -0.59169390057E+02  0.11448134685E+03  0.14296955706E+03  0.47000000000E+01 0. -1.
         -5    1    4    4    0  502 -0.43331902223E+02  0.11144883084E+02  0.26691460287E+02  0.52310479080E+02  0.47000000000E+01 0. -1.
          5    1    5    5  503    0  0.38039635188E+01  0.73195009539E+02  0.10175278292E+03  0.12548983382E+03  0.47000000000E+01 0.  1.
         -5    1    5    5    0  503 -0.22207049347E+02 -0.25170502566E+02 -0.14776088820E+02  0.36974721648E+02  0.47000000000E+01 0.  1.
<mgrwt>
<rscale>  0 0.27555217E+03</rscale>
<asrwt>0</asrwt>
<pdfrwt beam="1">  1        3 0.99688532E-02 0.27555217E+03</pdfrwt>
<pdfrwt beam="2">  1       -3 0.45068776E-01 0.27555217E+03</pdfrwt>
<totfact> 0.92691818E+02</totfact>
</mgrwt>
</event>
<event>
 9    1  0.2098759E-002  0.2728601E+03  0.7818608E-02  0.1099654E+00
         -3   -1    0    0    0  501 -0.00000000000E+00  0.00000000000E+00  0.13703034187E+04  0.13703034187E+04  0.00000000000E+00 0.  1.
          3   -1    0    0  501    0  0.00000000000E+00 -0.00000000000E+00 -0.13583239202E+02  0.13583239202E+02  0.00000000000E+00 0.  1.
         36    2    1    2    0    0 -0.71054273576E-14  0.00000000000E+00  0.13567201795E+04  0.13838866579E+04  0.27286010420E+03 0.  0.
         25    2    3    3    0    0  0.32848382841E+02 -0.34272706222E+02  0.10657231913E+04  0.10741417044E+04  0.12554220792E+03 0.  0.
         25    2    3    3    0    0 -0.32848382841E+02  0.34272706222E+02  0.29099698820E+03  0.30974495352E+03  0.94916038922E+02 0.  0.
          5    1    4    4  502    0  0.51956959543E+02 -0.41040853175E+01  0.97679710655E+03  0.97819785653E+03  0.47000000000E+01 0. -1.
         -5    1    4    4    0  502 -0.19108576702E+02 -0.30168620905E+02  0.88926084742E+02  0.95943847840E+02  0.47000000000E+01 0. -1.
          5    1    5    5  503    0 -0.18250438914E+02  0.62104551138E+02  0.24755480891E+03  0.25592093937E+03  0.47000000000E+01 0. -1.
         -5    1    5    5    0  503 -0.14597943927E+02 -0.27831844916E+02  0.43442179287E+02  0.53824014153E+02  0.47000000000E+01 0. -1.
<mgrwt>
<rscale>  0 0.27286010E+03</rscale>
<asrwt>0</asrwt>
<pdfrwt beam="1">  1        3 0.20897302E-02 0.27286010E+03</pdfrwt>
<pdfrwt beam="2">  1       -3 0.21081580E+00 0.27286010E+03</pdfrwt>
<totfact> 0.30944720E+02</totfact>
</mgrwt>
</event>
<event>
 9    1  0.2098759E-002  0.2746015E+03  0.7818608E-02  0.1098675E+00
          1   -1    0    0  501    0  0.00000000000E+00  0.00000000000E+00  0.95742637320E+03  0.95742637320E+03  0.00000000000E+00 0.  1.
         -1   -1    0    0    0  501 -0.00000000000E+00 -0.00000000000E+00 -0.19689767372E+02  0.19689767372E+02  0.00000000000E+00 0.  1.
         36    2    1    2    0    0 -0.17763568394E-14  0.00000000000E+00  0.93773660583E+03  0.97711614058E+03  0.27460154817E+03 0.  0.
         25    2    3    3    0    0 -0.80470959502E+01 -0.62510472031E+02  0.28486836131E+03  0.30994975316E+03  0.10462576806E+03 0.  0.
         25    2    3    3    0    0  0.80470959502E+01  0.62510472031E+02  0.65286824452E+03  0.66716638741E+03  0.12207263791E+03 0.  0.
          5    1    4    4  502    0 -0.38410517172E+02 -0.13194374525E+02  0.21604225326E+03  0.21987679400E+03  0.47000000000E+01 0. -1.
         -5    1    4    4    0  502  0.30363421222E+02 -0.49316097506E+02  0.68826108054E+02  0.90072959158E+02  0.47000000000E+01 0. -1.
          5    1    5    5  503    0  0.23971688628E+02 -0.14764468792E+02  0.42541918818E+03  0.42637566426E+03  0.47000000000E+01 0.  1.
         -5    1    5    5    0  503 -0.15924592678E+02  0.77274940823E+02  0.22744905634E+03  0.24079072316E+03  0.47000000000E+01 0.  1.
<mgrwt>
<rscale>  0 0.27460155E+03</rscale>
<asrwt>0</asrwt>
<pdfrwt beam="1">  1        1 0.14729633E+00 0.27460155E+03</pdfrwt>
<pdfrwt beam="2">  1       -1 0.30291957E-02 0.27460155E+03</pdfrwt>
<totfact> 0.63999111E+03</totfact>
</mgrwt>
</event>
<event>
 9    1  0.2098759E-002  0.2727778E+03  0.7818608E-02  0.1099700E+00
         -2   -1    0    0    0  501 -0.00000000000E+00  0.00000000000E+00  0.11116757677E+02  0.11116757677E+02  0.00000000000E+00 0. -1.
          2   -1    0    0  501    0  0.00000000000E+00 -0.00000000000E+00 -0.16733234725E+04  0.16733234725E+04  0.00000000000E+00 0. -1.
         36    2    1    2    0    0  0.35527136788E-14 -0.71054273576E-14 -0.16622067148E+04  0.16844402302E+04  0.27277779645E+03 0.  0.
         25    2    3    3    0    0 -0.13015457121E+02  0.17566911590E+00 -0.79644288232E+03  0.80640999630E+03  0.12572344391E+03 0.  0.
         25    2    3    3    0    0  0.13015457121E+02 -0.17566911590E+00 -0.86576383250E+03  0.87803023387E+03  0.14567307558E+03 0.  0.
          5    1    4    4  502    0  0.17304787947E+02 -0.57606872290E+02 -0.42271858885E+03  0.42700246226E+03  0.47000000000E+01 0.  1.
         -5    1    4    4    0  502 -0.30320245067E+02  0.57782541406E+02 -0.37372429347E+03  0.37940753404E+03  0.47000000000E+01 0.  1.
          5    1    5    5  503    0  0.49632963861E+02  0.57451150876E+02 -0.38760104829E+03  0.39499459297E+03  0.47000000000E+01 0. -1.
         -5    1    5    5    0  503 -0.36617506740E+02 -0.57626819992E+02 -0.47816278420E+03  0.48303564090E+03  0.47000000000E+01 0. -1.
<mgrwt>
<rscale>  0 0.27277780E+03</rscale>
<asrwt>0</asrwt>
<pdfrwt beam="1">  1        2 0.25743425E+00 0.27277780E+03</pdfrwt>
<pdfrwt beam="2">  1       -2 0.17102713E-02 0.27277780E+03</pdfrwt>
<totfact> 0.10738478E+04</totfact>
</mgrwt>
</event>
<event>
 9    1  0.2098759E-002  0.2759787E+03  0.7818608E-02  0.1097906E+00
         -1   -1    0    0    0  501 -0.00000000000E+00  0.00000000000E+00  0.20961684670E+02  0.20961684670E+02  0.00000000000E+00 0.  1.
          1   -1    0    0  501    0  0.00000000000E+00 -0.00000000000E+00 -0.90837475529E+03  0.90837475529E+03  0.00000000000E+00 0.  1.
         36    2    1    2    0    0  0.00000000000E+00 -0.35527136788E-14 -0.88741307062E+03  0.92933643996E+03  0.27597873239E+03 0.  0.
         25    2    3    3    0    0 -0.32382352601E+02 -0.84184424609E+01 -0.27670498047E+03  0.30486687097E+03  0.12352601292E+03 0.  0.
         25    2    3    3    0    0  0.32382352601E+02  0.84184424609E+01 -0.61070809016E+03  0.62446956899E+03  0.12600946107E+03 0.  0.
          5    1    4    4  502    0  0.47252953146E+02 -0.47439483360E+01 -0.11532066046E+03  0.12480501335E+03  0.47000000000E+01 0.  1.
         -5    1    4    4    0  502 -0.79635305747E+02 -0.36744941249E+01 -0.16138432000E+03  0.18006185763E+03  0.47000000000E+01 0.  1.
          5    1    5    5  503    0  0.37381748782E+02 -0.42346559198E+02 -0.14084679298E+03  0.15182402745E+03  0.47000000000E+01 0. -1.
         -5    1    5    5    0  503 -0.49993961811E+01  0.50765001659E+02 -0.46986129718E+03  0.47264554154E+03  0.47000000000E+01 0. -1.
<mgrwt>
<rscale>  0 0.27597873E+03</rscale>
<asrwt>0</asrwt>
<pdfrwt beam="1">  1        1 0.13974995E+00 0.27597873E+03</pdfrwt>
<pdfrwt beam="2">  1       -1 0.32248748E-02 0.27597873E+03</pdfrwt>
<totfact> 0.63672916E+03</totfact>
</mgrwt>
</event>
<event>
 9    1  0.2098759E-002  0.2749466E+03  0.7818608E-02  0.1098481E+00
         -2   -1    0    0    0  501 -0.00000000000E+00  0.00000000000E+00  0.16903446309E+02  0.16903446309E+02  0.00000000000E+00 0. -1.
          2   -1    0    0  501    0  0.00000000000E+00 -0.00000000000E+00 -0.11180506242E+04  0.11180506242E+04  0.00000000000E+00 0. -1.
         36    2    1    2    0    0 -0.71054273576E-14 -0.14210854715E-13 -0.11011471779E+04  0.11349540705E+04  0.27494660352E+03 0.  0.
         25    2    3    3    0    0 -0.14178677615E+02  0.52134075358E+02 -0.53869978894E+03  0.55564232020E+03  0.12498771416E+03 0.  0.
         25    2    3    3    0    0  0.14178677615E+02 -0.52134075358E+02 -0.56244738895E+03  0.57931175030E+03  0.12781252672E+03 0.  0.
          5    1    4    4  502    0  0.44354435247E+02  0.61407500446E+02 -0.33189642521E+03  0.34046368985E+03  0.47000000000E+01 0. -1.
         -5    1    4    4    0  502 -0.58533112862E+02 -0.92734250877E+01 -0.20680336372E+03  0.21517863035E+03  0.47000000000E+01 0. -1.
          5    1    5    5  503    0 -0.44283019389E+02  0.89816622166E+01 -0.11013629914E+03  0.11913752746E+03  0.47000000000E+01 0. -1.
         -5    1    5    5    0  503  0.58461697004E+02 -0.61115737575E+02 -0.45231108982E+03  0.46017422284E+03  0.47000000000E+01 0. -1.
<mgrwt>
<rscale>  0 0.27494660E+03</rscale>
<asrwt>0</asrwt>
<pdfrwt beam="1">  1        2 0.17200775E+00 0.27494660E+03</pdfrwt>
<pdfrwt beam="2">  1       -2 0.26005308E-02 0.27494660E+03</pdfrwt>
<totfact> 0.11662467E+04</totfact>
</mgrwt>
</event>
<event>
 9    1  0.2098759E-002  0.2755359E+03  0.7818608E-02  0.1098152E+00
          2   -1    0    0  501    0  0.00000000000E+00  0.00000000000E+00  0.41618080185E+04  0.41618080185E+04  0.00000000000E+00 0. -1.
         -2   -1    0    0    0  501 -0.00000000000E+00 -0.00000000000E+00 -0.45605203013E+01  0.45605203013E+01  0.00000000000E+00 0. -1.
         36    2    1    2    0    0 -0.71054273576E-14  0.00000000000E+00  0.41572474982E+04  0.41663685388E+04  0.27553591387E+03 0.  0.
         25    2    3    3    0    0 -0.31492999011E+02 -0.18978464049E+02  0.28123413325E+04  0.28152120191E+04  0.12166737696E+03 0.  0.
         25    2    3    3    0    0  0.31492999011E+02  0.18978464049E+02  0.13449061657E+04  0.13511565197E+04  0.12449640659E+03 0.  0.
          5    1    4    4  502    0 -0.69101747581E+02 -0.16746313633E+02  0.24173888811E+04  0.24184388732E+04  0.47000000000E+01 0.  1.
         -5    1    4    4    0  502  0.37608748570E+02 -0.22321504157E+01  0.39495245141E+03  0.39677314594E+03  0.47000000000E+01 0.  1.
          5    1    5    5  503    0  0.62851644133E+02 -0.29797470810E+02  0.61603929847E+03  0.61997155233E+03  0.47000000000E+01 0. -1.
         -5    1    5    5    0  503 -0.31358645122E+02  0.48775934859E+02  0.72886686719E+03  0.73118496738E+03  0.47000000000E+01 0. -1.
<mgrwt>
<rscale>  0 0.27553591E+03</rscale>
<asrwt>0</asrwt>
<pdfrwt beam="1">  1        2 0.64027512E+00 0.27553591E+03</pdfrwt>
<pdfrwt beam="2">  1       -2 0.70162184E-03 0.27553591E+03</pdfrwt>
<totfact> 0.11879777E+03</totfact>
</mgrwt>
</event>
<event>
 9    1  0.2098759E-002  0.2744901E+03  0.7818608E-02  0.1098737E+00
         -2   -1    0    0    0  501 -0.00000000000E+00  0.00000000000E+00  0.52592684508E+03  0.52592684508E+03  0.00000000000E+00 0.  1.
          2   -1    0    0  501    0  0.00000000000E+00 -0.00000000000E+00 -0.35815245957E+02  0.35815245957E+02  0.00000000000E+00 0.  1.
         36    2    1    2    0    0  0.00000000000E+00  0.71054273576E-14  0.49011159912E+03  0.56174209103E+03  0.27449006767E+03 0.  0.
         25    2    3    3    0    0 -0.34386506638E+02 -0.20089305249E+02  0.32856089208E+03  0.35456800540E+03  0.12720140968E+03 0.  0.
         25    2    3    3    0    0  0.34386506638E+02  0.20089305249E+02  0.16155070704E+03  0.20717408564E+03  0.12343605142E+03 0.  0.
          5    1    4    4  502    0 -0.92747154168E+00 -0.68683790839E+02  0.22487217100E+03  0.23517633091E+03  0.47000000000E+01 0.  1.
         -5    1    4    4    0  502 -0.33459035096E+02  0.48594485590E+02  0.10368872108E+03  0.11939167449E+03  0.47000000000E+01 0.  1.
          5    1    5    5  503    0 -0.19115787136E+02  0.48864396597E+02  0.12614458665E+03  0.13670292358E+03  0.47000000000E+01 0. -1.
         -5    1    5    5    0  503  0.53502293774E+02 -0.28775091347E+02  0.35406120391E+02  0.70471162061E+02  0.47000000000E+01 0. -1.
<mgrwt>
<rscale>  0 0.27449007E+03</rscale>
<asrwt>0</asrwt>
<pdfrwt beam="1">  1        2 0.55100382E-02 0.27449007E+03</pdfrwt>
<pdfrwt beam="2">  1       -2 0.80911817E-01 0.27449007E+03</pdfrwt>
<totfact> 0.19161692E+03</totfact>
</mgrwt>
</event>
<event>
 9    1  0.2098759E-002  0.2752716E+03  0.7818608E-02  0.1098300E+00
          2   -1    0    0  501    0  0.00000000000E+00  0.00000000000E+00  0.19823725619E+04  0.19823725619E+04  0.00000000000E+00 0. -1.
         -2   -1    0    0    0  501 -0.00000000000E+00 -0.00000000000E+00 -0.95560321767E+01  0.95560321767E+01  0.00000000000E+00 0. -1.
         36    2    1    2    0    0  0.00000000000E+00  0.35527136788E-14  0.19728165298E+04  0.19919285941E+04  0.27527161850E+03 0.  0.
         25    2    3    3    0    0 -0.36295400818E+02 -0.82038711367E+01  0.13288443310E+04  0.13351474562E+04  0.12412418903E+03 0.  0.
         25    2    3    3    0    0  0.36295400818E+02  0.82038711367E+01  0.64397219878E+03  0.65678113787E+03  0.12359858674E+03 0.  0.
          5    1    4    4  502    0 -0.91829889352E+01  0.21362047665E+01  0.12629482047E+04  0.12629921411E+04  0.47000000000E+01 0.  1.
         -5    1    4    4    0  502 -0.27112411883E+02 -0.10340075903E+02  0.65896126257E+02  0.72155315144E+02  0.47000000000E+01 0.  1.
          5    1    5    5  503    0 -0.26586994245E+02  0.47486189966E+02  0.25678559158E+03  0.26253140106E+03  0.47000000000E+01 0.  1.
         -5    1    5    5    0  503  0.62882395063E+02 -0.39282318829E+02  0.38718660719E+03  0.39424973681E+03  0.47000000000E+01 0.  1.
<mgrwt>
<rscale>  0 0.27527162E+03</rscale>
<asrwt>0</asrwt>
<pdfrwt beam="1">  1        2 0.30498007E+00 0.27527162E+03</pdfrwt>
<pdfrwt beam="2">  1       -2 0.14701604E-02 0.27527162E+03</pdfrwt>
<totfact> 0.92220137E+03</totfact>
</mgrwt>
</event>
<event>
 9    1  0.2098759E-002  0.2739905E+03  0.7818608E-02  0.1099017E+00
         -1   -1    0    0    0  501 -0.00000000000E+00  0.00000000000E+00  0.31261983549E+02  0.31261983549E+02  0.00000000000E+00 0.  1.
          1   -1    0    0  501    0  0.00000000000E+00 -0.00000000000E+00 -0.60033632940E+03  0.60033632940E+03  0.00000000000E+00 0.  1.
         36    2    1    2    0    0 -0.35527136788E-14  0.14210854715E-13 -0.56907434585E+03  0.63159831295E+03  0.27399054329E+03 0.  0.
         25    2    3    3    0    0  0.30781084735E+02 -0.49256372827E+02 -0.32778410836E+03  0.35443477709E+03  0.12168781401E+03 0.  0.
         25    2    3    3    0    0 -0.30781084735E+02  0.49256372827E+02 -0.24129023749E+03  0.27716353586E+03  0.12338955166E+03 0.  0.
          5    1    4    4  502    0 -0.60024308526E+01 -0.78722119281E+02 -0.14026591697E+03  0.16102738495E+03  0.47000000000E+01 0.  1.
         -5    1    4    4    0  502  0.36783515588E+02  0.29465746454E+02 -0.18751819139E+03  0.19340739214E+03  0.47000000000E+01 0.  1.
          5    1    5    5  503    0 -0.30868678088E+02 -0.36541946151E+02 -0.11252370848E+03  0.12235956883E+03  0.47000000000E+01 0. -1.
         -5    1    5    5    0  503  0.87593352769E-01  0.85798318978E+02 -0.12876652901E+03  0.15480396702E+03  0.47000000000E+01 0. -1.
<mgrwt>
<rscale>  0 0.27399054E+03</rscale>
<asrwt>0</asrwt>
<pdfrwt beam="1">  1        1 0.92359439E-01 0.27399054E+03</pdfrwt>
<pdfrwt beam="2">  1       -1 0.48095357E-02 0.27399054E+03</pdfrwt>
<totfact> 0.65321329E+03</totfact>
</mgrwt>
</event>
<event>
 9    1  0.2098759E-002  0.2739259E+03  0.7818608E-02  0.1099054E+00
          2   -1    0    0  501    0  0.00000000000E+00  0.00000000000E+00  0.10704759264E+03  0.10704759264E+03  0.00000000000E+00 0. -1.
         -2   -1    0    0    0  501 -0.00000000000E+00 -0.00000000000E+00 -0.17523834809E+03  0.17523834809E+03  0.00000000000E+00 0. -1.
         36    2    1    2    0    0  0.00000000000E+00  0.00000000000E+00 -0.68190755445E+02  0.28228594073E+03  0.27392585349E+03 0.  0.
         25    2    3    3    0    0 -0.53031656510E+02  0.20496364004E+02 -0.72875352468E+01  0.13403295331E+03  0.12115802438E+03 0.  0.
         25    2    3    3    0    0  0.53031656510E+02 -0.20496364004E+02 -0.60903220199E+02  0.14825298743E+03  0.12262662240E+03 0.  0.
          5    1    4    4  502    0  0.12724255799E+02  0.51532612879E+02 -0.25279812198E+02  0.58980299937E+02  0.47000000000E+01 0.  1.
         -5    1    4    4    0  502 -0.65755912309E+02 -0.31036248876E+02  0.17992276952E+02  0.75052653369E+02  0.47000000000E+01 0.  1.
          5    1    5    5  503    0 -0.16012895335E+02 -0.75415599867E+01  0.28854965830E+02  0.34175824747E+02  0.47000000000E+01 0. -1.
         -5    1    5    5    0  503  0.69044551844E+02 -0.12954804017E+02 -0.89758186029E+02  0.11407716268E+03  0.47000000000E+01 0. -1.
<mgrwt>
<rscale>  0 0.27392585E+03</rscale>
<asrwt>0</asrwt>
<pdfrwt beam="1">  1        2 0.16468861E-01 0.27392585E+03</pdfrwt>
<pdfrwt beam="2">  1       -2 0.26959746E-01 0.27392585E+03</pdfrwt>
<totfact> 0.43027568E+03</totfact>
</mgrwt>
</event>
<event>
 9    1  0.2098759E-002  0.2748058E+03  0.7818608E-02  0.1098560E+00
          1   -1    0    0  501    0  0.00000000000E+00  0.00000000000E+00  0.46180775029E+02  0.46180775029E+02  0.00000000000E+00 0. -1.
         -1   -1    0    0    0  501 -0.00000000000E+00 -0.00000000000E+00 -0.40881847185E+03  0.40881847185E+03  0.00000000000E+00 0. -1.
         36    2    1    2    0    0 -0.35527136788E-14  0.00000000000E+00 -0.36263769682E+03  0.45499924688E+03  0.27480577779E+03 0.  0.
         25    2    3    3    0    0 -0.15117346497E+02  0.36457291943E+02 -0.24327161448E+03  0.27888172334E+03  0.13052305889E+03 0.  0.
         25    2    3    3    0    0  0.15117346497E+02 -0.36457291943E+02 -0.11936608234E+03  0.17611752354E+03  0.12333471605E+03 0.  0.
          5    1    4    4  502    0 -0.27101534151E+01 -0.29458011834E+02 -0.38521638663E+01  0.30200141708E+02  0.47000000000E+01 0.  1.
         -5    1    4    4    0  502 -0.12407193082E+02  0.65915303777E+02 -0.23941945061E+03  0.24868158164E+03  0.47000000000E+01 0.  1.
          5    1    5    5  503    0  0.19943571110E+00 -0.38408968399E+02  0.14502394294E+02  0.41324303604E+02  0.47000000000E+01 0.  1.
         -5    1    5    5    0  503  0.14917910786E+02  0.19516764555E+01 -0.13386847664E+03  0.13479321994E+03  0.47000000000E+01 0.  1.
<mgrwt>
<rscale>  0 0.27480578E+03</rscale>
<asrwt>0</asrwt>
<pdfrwt beam="1">  1        1 0.71047346E-02 0.27480578E+03</pdfrwt>
<pdfrwt beam="2">  1       -1 0.62895150E-01 0.27480578E+03</pdfrwt>
<totfact> 0.27053667E+03</totfact>
</mgrwt>
</event>
<event>
 9    1  0.2098759E-002  0.2639105E+03  0.7818608E-02  0.1104816E+00
          3   -1    0    0  501    0  0.00000000000E+00  0.00000000000E+00  0.11287816023E+03  0.11287816023E+03  0.00000000000E+00 0.  1.
         -3   -1    0    0    0  501 -0.00000000000E+00 -0.00000000000E+00 -0.15425643995E+03  0.15425643995E+03  0.00000000000E+00 0.  1.
         36    2    1    2    0    0 -0.14210854715E-13  0.00000000000E+00 -0.41378279723E+02  0.26713460018E+03  0.26391046319E+03 0.  0.
         25    2    3    3    0    0 -0.47685356931E+02  0.26506760561E+01 -0.17984578594E+02  0.13015274068E+03  0.11973041171E+03 0.  0.
         25    2    3    3    0    0  0.47685356931E+02 -0.26506760561E+01 -0.23393701129E+02  0.13698185950E+03  0.12623725770E+03 0.  0.
          5    1    4    4  502    0  0.28789057475E+02  0.39548931020E+01  0.28130694039E+02  0.40717035217E+02  0.47000000000E+01 0.  1.
         -5    1    4    4    0  502 -0.76474414406E+02 -0.13042170459E+01 -0.46115272633E+02  0.89435705459E+02  0.47000000000E+01 0.  1.
          5    1    5    5  503    0  0.14326646224E+02 -0.10525374733E+02  0.51391431502E+02  0.54582099054E+02  0.47000000000E+01 0.  1.
         -5    1    5    5    0  503  0.33358710707E+02  0.78746986771E+01 -0.74785132631E+02  0.82399760448E+02  0.47000000000E+01 0.  1.
<mgrwt>
<rscale>  0 0.26391046E+03</rscale>
<asrwt>0</asrwt>
<pdfrwt beam="1">  1        3 0.17365871E-01 0.26391046E+03</pdfrwt>
<pdfrwt beam="2">  1       -3 0.23731760E-01 0.26391046E+03</pdfrwt>
<totfact> 0.12036539E+03</totfact>
</mgrwt>
</event>
<event>
 9    1  0.2098759E-002  0.2719696E+03  0.7818608E-02  0.1100158E+00
         -2   -1    0    0    0  501 -0.00000000000E+00  0.00000000000E+00  0.12065345138E+02  0.12065345138E+02  0.00000000000E+00 0.  1.
          2   -1    0    0  501    0  0.00000000000E+00 -0.00000000000E+00 -0.15326432413E+04  0.15326432413E+04  0.00000000000E+00 0.  1.
         36    2    1    2    0    0  0.00000000000E+00 -0.17763568394E-14 -0.15205778962E+04  0.15447085864E+04  0.27196962830E+03 0.  0.
         25    2    3    3    0    0 -0.42372383782E+02  0.98634380941E+01 -0.57484914633E+03  0.58995542229E+03  0.12531222184E+03 0.  0.
         25    2    3    3    0    0  0.42372383782E+02 -0.98634380941E+01 -0.94572874983E+03  0.95475316414E+03  0.12352339802E+03 0.  0.
          5    1    4    4  502    0 -0.15505412121E+02  0.62446118658E+02 -0.40423704892E+03  0.40935268078E+03  0.47000000000E+01 0. -1.
         -5    1    4    4    0  502 -0.26866971662E+02 -0.52582680564E+02 -0.17061209740E+03  0.18060274151E+03  0.47000000000E+01 0. -1.
          5    1    5    5  503    0  0.37177737744E+01 -0.52961321807E+01 -0.86470697362E+03  0.86474395695E+03  0.47000000000E+01 0. -1.
         -5    1    5    5    0  503  0.38654610008E+02 -0.45673059134E+01 -0.81021776217E+02  0.90009207193E+02  0.47000000000E+01 0. -1.
<mgrwt>
<rscale>  0 0.27196963E+03</rscale>
<asrwt>0</asrwt>
<pdfrwt beam="1">  1        2 0.23579103E+00 0.27196963E+03</pdfrwt>
<pdfrwt beam="2">  1       -2 0.18562088E-02 0.27196963E+03</pdfrwt>
<totfact> 0.11305128E+04</totfact>
</mgrwt>
</event>
<event>
 9    1  0.2098759E-002  0.2773050E+03  0.7818608E-02  0.1097170E+00
         -3   -1    0    0    0  501 -0.00000000000E+00  0.00000000000E+00  0.38989069913E+02  0.38989069913E+02  0.00000000000E+00 0. -1.
          3   -1    0    0  501    0  0.00000000000E+00 -0.00000000000E+00 -0.49307450267E+03  0.49307450267E+03  0.00000000000E+00 0. -1.
         36    2    1    2    0    0  0.00000000000E+00 -0.71054273576E-14 -0.45408543275E+03  0.53206357258E+03  0.27730500361E+03 0.  0.
         25    2    3    3    0    0  0.51562066567E+02  0.33130481410E+02 -0.18202257775E+03  0.22687349309E+03  0.12076045523E+03 0.  0.
         25    2    3    3    0    0 -0.51562066567E+02 -0.33130481410E+02 -0.27206285500E+03  0.30519007949E+03  0.12396173620E+03 0.  0.
          5    1    4    4  502    0 -0.14090944211E+02  0.37386762698E+02 -0.83354634800E+01  0.41083995488E+02  0.47000000000E+01 0.  1.
         -5    1    4    4    0  502  0.65653010779E+02 -0.42562812883E+01 -0.17368711427E+03  0.18578949760E+03  0.47000000000E+01 0.  1.
          5    1    5    5  503    0 -0.85837012474E+02 -0.50327338004E+02 -0.19917748360E+03  0.22269843653E+03  0.47000000000E+01 0.  1.
         -5    1    5    5    0  503  0.34274945907E+02  0.17196856594E+02 -0.72885371401E+02  0.82491642958E+02  0.47000000000E+01 0.  1.
<mgrwt>
<rscale>  0 0.27730500E+03</rscale>
<asrwt>0</asrwt>
<pdfrwt beam="1">  1        3 0.75857618E-01 0.27730500E+03</pdfrwt>
<pdfrwt beam="2">  1       -3 0.59983183E-02 0.27730500E+03</pdfrwt>
<totfact> 0.72561335E+02</totfact>
</mgrwt>
</event>
<event>
 9    1  0.2098759E-002  0.2771969E+03  0.7818608E-02  0.1097230E+00
          4   -1    0    0  501    0  0.00000000000E+00  0.00000000000E+00  0.12538531149E+04  0.12538531149E+04  0.00000000000E+00 0.  1.
         -4   -1    0    0    0  501 -0.00000000000E+00 -0.00000000000E+00 -0.15320394355E+02  0.15320394355E+02  0.00000000000E+00 0.  1.
         36    2    1    2    0    0  0.00000000000E+00  0.00000000000E+00  0.12385327206E+04  0.12691735093E+04  0.27719685557E+03 0.  0.
         25    2    3    3    0    0 -0.22299578794E+02 -0.35268792850E+02  0.40895092239E+03  0.42967624018E+03  0.12505860824E+03 0.  0.
         25    2    3    3    0    0  0.22299578794E+02  0.35268792850E+02  0.82958179819E+03  0.83949726910E+03  0.12169036930E+03 0.  0.
          5    1    4    4  502    0  0.31837815313E+02 -0.19907452802E+02  0.35197505836E+02  0.51680824085E+02  0.47000000000E+01 0. -1.
         -5    1    4    4    0  502 -0.54137394107E+02 -0.15361340048E+02  0.37375341655E+03  0.37799541610E+03  0.47000000000E+01 0. -1.
          5    1    5    5  503    0  0.63954227379E+02  0.51203727758E+02  0.46732409848E+03  0.47447430695E+03  0.47000000000E+01 0.  1.
         -5    1    5    5    0  503 -0.41654648586E+02 -0.15934934907E+02  0.36225769971E+03  0.36502296215E+03  0.47000000000E+01 0.  1.
<mgrwt>
<rscale>  0 0.27719686E+03</rscale>
<asrwt>0</asrwt>
<pdfrwt beam="1">  1        4 0.19290040E+00 0.27719686E+03</pdfrwt>
<pdfrwt beam="2">  1       -4 0.23569847E-02 0.27719686E+03</pdfrwt>
<totfact> 0.23551382E+02</totfact>
</mgrwt>
</event>
<event>
 9    1  0.2098759E-002  0.2733016E+03  0.7818608E-02  0.1099405E+00
          2   -1    0    0  501    0  0.00000000000E+00  0.00000000000E+00  0.20009553190E+03  0.20009553190E+03  0.00000000000E+00 0.  1.
         -2   -1    0    0    0  501 -0.00000000000E+00 -0.00000000000E+00 -0.93322651903E+02  0.93322651903E+02  0.00000000000E+00 0.  1.
         36    2    1    2    0    0  0.71054273576E-14  0.00000000000E+00  0.10677287999E+03  0.29341818380E+03  0.27330163315E+03 0.  0.
         25    2    3    3    0    0  0.15805308162E+02 -0.17161367390E+02  0.17299037023E+01  0.12668240878E+03  0.12450349324E+03 0.  0.
         25    2    3    3    0    0 -0.15805308162E+02  0.17161367390E+02  0.10504297629E+03  0.16673577502E+03  0.12736746644E+03 0.  0.
          5    1    4    4  502    0 -0.50590916264E+02 -0.28602843611E+02  0.80027142807E+01  0.58853180942E+02  0.47000000000E+01 0.  1.
         -5    1    4    4    0  502  0.66396224426E+02  0.11441476221E+02 -0.62728105783E+01  0.67829227835E+02  0.47000000000E+01 0.  1.
          5    1    5    5  503    0  0.48197327900E+02  0.14589795184E+02  0.85958873945E+02  0.99733958861E+02  0.47000000000E+01 0.  1.
         -5    1    5    5    0  503 -0.64002636062E+02  0.25715722067E+01  0.19084102346E+02  0.67001816161E+02  0.47000000000E+01 0.  1.
<mgrwt>
<rscale>  0 0.27330163E+03</rscale>
<asrwt>0</asrwt>
<pdfrwt beam="1">  1        2 0.30783928E-01 0.27330163E+03</pdfrwt>
<pdfrwt beam="2">  1       -2 0.14357331E-01 0.27330163E+03</pdfrwt>
<totfact> 0.62248196E+03</totfact>
</mgrwt>
</event>
<event>
 9    1  0.2098759E-002  0.2745604E+03  0.7818608E-02  0.1098698E+00
         -2   -1    0    0    0  501 -0.00000000000E+00  0.00000000000E+00  0.13332480511E+03  0.13332480511E+03  0.00000000000E+00 0.  1.
          2   -1    0    0  501    0  0.00000000000E+00 -0.00000000000E+00 -0.14135298265E+03  0.14135298265E+03  0.00000000000E+00 0.  1.
         36    2    1    2    0    0  0.00000000000E+00  0.35527136788E-14 -0.80281775380E+01  0.27467778777E+03  0.27456044045E+03 0.  0.
         25    2    3    3    0    0  0.30089151556E+01  0.19625104093E+02 -0.53195827167E+02  0.13802158996E+03  0.12580129167E+03 0.  0.
         25    2    3    3    0    0 -0.30089151556E+01 -0.19625104093E+02  0.45167649629E+02  0.13665619781E+03  0.12743861874E+03 0.  0.
          5    1    4    4  502    0 -0.63834161761E+01  0.12257694684E+02  0.40707641701E+02  0.43245822618E+02  0.47000000000E+01 0.  1.
         -5    1    4    4    0  502  0.93923313317E+01  0.73674094088E+01 -0.93903468868E+02  0.94775767339E+02  0.47000000000E+01 0.  1.
          5    1    5    5  503    0 -0.16934948381E+02 -0.57368075879E+02 -0.17086676092E+02  0.62385359714E+02  0.47000000000E+01 0.  1.
         -5    1    5    5    0  503  0.13926033225E+02  0.37742971786E+02  0.62254325721E+02  0.74270838097E+02  0.47000000000E+01 0.  1.
<mgrwt>
<rscale>  0 0.27456044E+03</rscale>
<asrwt>0</asrwt>
<pdfrwt beam="1">  1        2 0.21746612E-01 0.27456044E+03</pdfrwt>
<pdfrwt beam="2">  1       -2 0.20511509E-01 0.27456044E+03</pdfrwt>
<totfact> 0.50381175E+03</totfact>
</mgrwt>
</event>
<event>
 9    1  0.2098759E-002  0.2745036E+03  0.7818608E-02  0.1098729E+00
         -2   -1    0    0    0  501 -0.00000000000E+00  0.00000000000E+00  0.32723447708E+02  0.32723447708E+02  0.00000000000E+00 0.  1.
          2   -1    0    0  501    0  0.00000000000E+00 -0.00000000000E+00 -0.57567441575E+03  0.57567441575E+03  0.00000000000E+00 0.  1.
         36    2    1    2    0    0  0.00000000000E+00 -0.14210854715E-13 -0.54295096804E+03  0.60839786346E+03  0.27450356384E+03 0.  0.
         25    2    3    3    0    0  0.43444512168E+02  0.41276472876E+02 -0.17160506936E+03  0.21301533234E+03  0.11106781321E+03 0.  0.
         25    2    3    3    0    0 -0.43444512168E+02 -0.41276472876E+02 -0.37134589868E+03  0.39538253112E+03  0.12181295742E+03 0.  0.
          5    1    4    4  502    0 -0.32122571096E+02  0.21370598991E+02 -0.23300431955E+02  0.45316246583E+02  0.47000000000E+01 0.  1.
         -5    1    4    4    0  502  0.75567083265E+02  0.19905873886E+02 -0.14830463741E+03  0.16769908576E+03  0.47000000000E+01 0.  1.
          5    1    5    5  503    0  0.22011032782E+00  0.33391873052E+02 -0.37283844330E+02  0.50271668786E+02  0.47000000000E+01 0. -1.
         -5    1    5    5    0  503 -0.43664622496E+02 -0.74668345928E+02 -0.33406205435E+03  0.34511086233E+03  0.47000000000E+01 0. -1.
<mgrwt>
<rscale>  0 0.27450356E+03</rscale>
<asrwt>0</asrwt>
<pdfrwt beam="1">  1        2 0.88565286E-01 0.27450356E+03</pdfrwt>
<pdfrwt beam="2">  1       -2 0.50343771E-02 0.27450356E+03</pdfrwt>
<totfact> 0.10209156E+04</totfact>
</mgrwt>
</event>
<event>
 9    1  0.2098759E-002  0.2759360E+03  0.7818608E-02  0.1097930E+00
         -2   -1    0    0    0  501 -0.00000000000E+00  0.00000000000E+00  0.15440142961E+02  0.15440142961E+02  0.00000000000E+00 0.  1.
          2   -1    0    0  501    0  0.00000000000E+00 -0.00000000000E+00 -0.12328362567E+04  0.12328362567E+04  0.00000000000E+00 0.  1.
         36    2    1    2    0    0  0.71054273576E-14  0.00000000000E+00 -0.12173961138E+04  0.12482763997E+04  0.27593599295E+03 0.  0.
         25    2    3    3    0    0 -0.33516843123E+02  0.37263443562E+02 -0.81974499870E+03  0.82793215454E+03  0.10477521957E+03 0.  0.
         25    2    3    3    0    0  0.33516843123E+02 -0.37263443562E+02 -0.39765111506E+03  0.42034424513E+03  0.12669227329E+03 0.  0.
          5    1    4    4  502    0 -0.48280098896E+02  0.43847035920E+02 -0.26556731481E+03  0.27349884681E+03  0.47000000000E+01 0. -1.
         -5    1    4    4    0  502  0.14763255773E+02 -0.65835923579E+01 -0.55417768388E+03  0.55443330773E+03  0.47000000000E+01 0. -1.
          5    1    5    5  503    0 -0.85994014918E+01 -0.58813133143E+01 -0.34712394258E+03  0.34731205143E+03  0.47000000000E+01 0.  1.
         -5    1    5    5    0  503  0.42116244615E+02 -0.31382130248E+02 -0.50527172474E+02  0.73032193707E+02  0.47000000000E+01 0.  1.
<mgrwt>
<rscale>  0 0.27593599E+03</rscale>
<asrwt>0</asrwt>
<pdfrwt beam="1">  1        2 0.18966721E+00 0.27593599E+03</pdfrwt>
<pdfrwt beam="2">  1       -2 0.23754055E-02 0.27593599E+03</pdfrwt>
<totfact> 0.11462390E+04</totfact>
</mgrwt>
</event>
<event>
 9    1  0.2098759E-002  0.2778198E+03  0.7818608E-02  0.1096886E+00
          2   -1    0    0  501    0  0.00000000000E+00  0.00000000000E+00  0.72232827570E+03  0.72232827570E+03  0.00000000000E+00 0. -1.
         -2   -1    0    0    0  501 -0.00000000000E+00 -0.00000000000E+00 -0.26713569675E+02  0.26713569675E+02  0.00000000000E+00 0. -1.
         36    2    1    2    0    0 -0.14210854715E-13  0.00000000000E+00  0.69561470602E+03  0.74904184537E+03  0.27781984610E+03 0.  0.
         25    2    3    3    0    0  0.58159278740E+02  0.79336012919E+01  0.21174361764E+03  0.24951854027E+03  0.11823154653E+03 0.  0.
         25    2    3    3    0    0 -0.58159278740E+02 -0.79336012919E+01  0.48387108838E+03  0.49952330510E+03  0.10930168542E+03 0.  0.
          5    1    4    4  502    0  0.74430638580E+02 -0.36583924427E+02  0.11718021897E+03  0.14363703285E+03  0.47000000000E+01 0. -1.
         -5    1    4    4    0  502 -0.16271359841E+02  0.44517525719E+02  0.94563398663E+02  0.10588150742E+03  0.47000000000E+01 0. -1.
          5    1    5    5  503    0 -0.83523110613E+02 -0.21394354584E+02  0.26466238883E+03  0.27839198709E+03  0.47000000000E+01 0. -1.
         -5    1    5    5    0  503  0.25363831873E+02  0.13460753293E+02  0.21920869956E+03  0.22113131802E+03  0.47000000000E+01 0. -1.
<mgrwt>
<rscale>  0 0.27781985E+03</rscale>
<asrwt>0</asrwt>
<pdfrwt beam="1">  1        2 0.11112741E+00 0.27781985E+03</pdfrwt>
<pdfrwt beam="2">  1       -2 0.41097805E-02 0.27781985E+03</pdfrwt>
<totfact> 0.10609251E+04</totfact>
</mgrwt>
</event>
<event>
 9    1  0.2098759E-002  0.2748863E+03  0.7818608E-02  0.1098515E+00
         -2   -1    0    0    0  501 -0.00000000000E+00  0.00000000000E+00  0.91896817799E+02  0.91896817799E+02  0.00000000000E+00 0.  1.
          2   -1    0    0  501    0  0.00000000000E+00 -0.00000000000E+00 -0.20556342149E+03  0.20556342149E+03  0.00000000000E+00 0.  1.
         36    2    1    2    0    0 -0.17763568394E-14  0.00000000000E+00 -0.11366660369E+03  0.29746023929E+03  0.27488633499E+03 0.  0.
         25    2    3    3    0    0  0.27867122086E+01 -0.59161643323E+02 -0.70767880903E+02  0.15383115421E+03  0.12307747655E+03 0.  0.
         25    2    3    3    0    0 -0.27867122086E+01  0.59161643323E+02 -0.42898722784E+02  0.14362908507E+03  0.12361694001E+03 0.  0.
          5    1    4    4  502    0 -0.58863148733E+02 -0.15989864076E+02 -0.31786807193E+02  0.68942273994E+02  0.47000000000E+01 0. -1.
         -5    1    4    4    0  502  0.61649860941E+02 -0.43171779246E+02 -0.38981073710E+02  0.84888880220E+02  0.47000000000E+01 0. -1.
          5    1    5    5  503    0  0.80121025165E+01  0.92874614636E+02 -0.79722303530E+01  0.93677821747E+02  0.47000000000E+01 0.  1.
         -5    1    5    5    0  503 -0.10798814725E+02 -0.33712971313E+02 -0.34926492431E+02  0.49951263325E+02  0.47000000000E+01 0.  1.
<mgrwt>
<rscale>  0 0.27488633E+03</rscale>
<asrwt>0</asrwt>
<pdfrwt beam="1">  1        2 0.31625142E-01 0.27488633E+03</pdfrwt>
<pdfrwt beam="2">  1       -2 0.14137972E-01 0.27488633E+03</pdfrwt>
<totfact> 0.62000538E+03</totfact>
</mgrwt>
</event>
<event>
 9    1  0.2098759E-002  0.2754357E+03  0.7818608E-02  0.1098208E+00
          2   -1    0    0  501    0  0.00000000000E+00  0.00000000000E+00  0.25904210554E+03  0.25904210554E+03  0.00000000000E+00 0.  1.
         -2   -1    0    0    0  501 -0.00000000000E+00 -0.00000000000E+00 -0.73216680158E+02  0.73216680158E+02  0.00000000000E+00 0.  1.
         36    2    1    2    0    0  0.00000000000E+00  0.14210854715E-13  0.18582542539E+03  0.33225878570E+03  0.27543567662E+03 0.  0.
         25    2    3    3    0    0 -0.31772515695E+02 -0.37963094958E+02  0.61099684221E+02  0.14797258694E+03  0.12534761961E+03 0.  0.
         25    2    3    3    0    0  0.31772515695E+02  0.37963094958E+02  0.12472574117E+03  0.18428619876E+03  0.12630994898E+03 0.  0.
          5    1    4    4  502    0 -0.48347129476E+02  0.32121189127E+02  0.89189853066E+01  0.58913954361E+02  0.47000000000E+01 0. -1.
         -5    1    4    4    0  502  0.16574613781E+02 -0.70084284085E+02  0.52180698914E+02  0.89058632579E+02  0.47000000000E+01 0. -1.
          5    1    5    5  503    0  0.41271182941E+02 -0.38293794355E+02  0.36835118119E+02  0.67443614629E+02  0.47000000000E+01 0. -1.
         -5    1    5    5    0  503 -0.94986672461E+01  0.76256889313E+02  0.87890623046E+02  0.11684258413E+03  0.47000000000E+01 0. -1.
<mgrwt>
<rscale>  0 0.27543568E+03</rscale>
<asrwt>0</asrwt>
<pdfrwt beam="1">  1        2 0.39852631E-01 0.27543568E+03</pdfrwt>
<pdfrwt beam="2">  1       -2 0.11264105E-01 0.27543568E+03</pdfrwt>
<totfact> 0.69760166E+03</totfact>
</mgrwt>
</event>
<event>
 9    1  0.2098759E-002  0.2750251E+03  0.7818608E-02  0.1098438E+00
         -4   -1    0    0    0  501 -0.00000000000E+00  0.00000000000E+00  0.70530227622E+02  0.70530227622E+02  0.00000000000E+00 0. -1.
          4   -1    0    0  501    0  0.00000000000E+00 -0.00000000000E+00 -0.26810768126E+03  0.26810768126E+03  0.00000000000E+00 0. -1.
         36    2    1    2    0    0 -0.11102230246E-15 -0.71054273576E-14 -0.19757745364E+03  0.33863790889E+03  0.27502505913E+03 0.  0.
         25    2    3    3    0    0 -0.95564428107E+00  0.47258023756E+02 -0.65709692577E+02  0.15133491897E+03  0.12786813495E+03 0.  0.
         25    2    3    3    0    0  0.95564428107E+00 -0.47258023756E+02 -0.13186776107E+03  0.18730298992E+03  0.12433450670E+03 0.  0.
          5    1    4    4  502    0  0.49644854269E+02  0.34768177917E+02 -0.76693184704E+02  0.97864050249E+02  0.47000000000E+01 0.  1.
         -5    1    4    4    0  502 -0.50600498550E+02  0.12489845839E+02  0.10983492127E+02  0.53470868722E+02  0.47000000000E+01 0.  1.
          5    1    5    5  503    0  0.11557293860E+01  0.39205662230E+02 -0.71692660564E+02  0.81855648798E+02  0.47000000000E+01 0. -1.
         -5    1    5    5    0  503 -0.20008510492E+00 -0.86463685987E+02 -0.60175100501E+02  0.10544734112E+03  0.47000000000E+01 0. -1.
<mgrwt>
<rscale>  0 0.27502506E+03</rscale>
<asrwt>0</asrwt>
<pdfrwt beam="1">  1        4 0.41247336E-01 0.27502506E+03</pdfrwt>
<pdfrwt beam="2">  1       -4 0.10850804E-01 0.27502506E+03</pdfrwt>
<totfact> 0.70852181E+02</totfact>
</mgrwt>
</event>
<event>
 9    1  0.2098759E-002  0.2761243E+03  0.7818608E-02  0.1097825E+00
          4   -1    0    0  501    0  0.00000000000E+00  0.00000000000E+00  0.67397906419E+03  0.67397906419E+03  0.00000000000E+00 0. -1.
         -4   -1    0    0    0  501 -0.00000000000E+00 -0.00000000000E+00 -0.28281534150E+02  0.28281534150E+02  0.00000000000E+00 0. -1.
         36    2    1    2    0    0  0.00000000000E+00  0.35527136788E-14  0.64569753004E+03  0.70226059834E+03  0.27612433373E+03 0.  0.
         25    2    3    3    0    0  0.11249506948E+02 -0.27246888897E+02  0.20521162450E+03  0.24330805911E+03  0.12735013324E+03 0.  0.
         25    2    3    3    0    0 -0.11249506948E+02  0.27246888897E+02  0.44048590553E+03  0.45895253923E+03  0.12546177078E+03 0.  0.
          5    1    4    4  502    0  0.24879890759E+02 -0.52095592084E+02  0.29013012234E+02  0.64782748920E+02  0.47000000000E+01 0.  1.
         -5    1    4    4    0  502 -0.13630383811E+02  0.24848703186E+02  0.17619861227E+03  0.17852531019E+03  0.47000000000E+01 0.  1.
          5    1    5    5  503    0 -0.24608529785E+02  0.74348881176E+02  0.30067287378E+03  0.31074041079E+03  0.47000000000E+01 0.  1.
         -5    1    5    5    0  503  0.13359022837E+02 -0.47101992279E+02  0.13981303176E+03  0.14821212844E+03  0.47000000000E+01 0.  1.
<mgrwt>
<rscale>  0 0.27612433E+03</rscale>
<asrwt>0</asrwt>
<pdfrwt beam="1">  1        4 0.10368907E+00 0.27612433E+03</pdfrwt>
<pdfrwt beam="2">  1       -4 0.43510058E-02 0.27612433E+03</pdfrwt>
<totfact> 0.43901062E+02</totfact>
</mgrwt>
</event>
<event>
 9    1  0.2098759E-002  0.2745910E+03  0.7818608E-02  0.1098680E+00
          1   -1    0    0  501    0  0.00000000000E+00  0.00000000000E+00  0.65970346555E+03  0.65970346555E+03  0.00000000000E+00 0. -1.
         -1   -1    0    0    0  501 -0.00000000000E+00 -0.00000000000E+00 -0.28573529564E+02  0.28573529564E+02  0.00000000000E+00 0. -1.
         36    2    1    2    0    0 -0.17763568394E-14  0.00000000000E+00  0.63112993598E+03  0.68827699511E+03  0.27459101570E+03 0.  0.
         25    2    3    3    0    0 -0.86629245510E+01  0.44987868720E+02  0.21021385183E+03  0.24692940308E+03  0.12118296914E+03 0.  0.
         25    2    3    3    0    0  0.86629245510E+01 -0.44987868720E+02  0.42091608416E+03  0.44134759204E+03  0.12457284014E+03 0.  0.
          5    1    4    4  502    0 -0.93205330744E+01 -0.26399098392E+02  0.40139164028E+01  0.28670302712E+02  0.47000000000E+01 0.  1.
         -5    1    4    4    0  502  0.65760852339E+00  0.71386967112E+02  0.20619993543E+03  0.21825910036E+03  0.47000000000E+01 0.  1.
          5    1    5    5  503    0  0.38556222103E+02 -0.76729174328E+02  0.23251462322E+03  0.24790943602E+03  0.47000000000E+01 0. -1.
         -5    1    5    5    0  503 -0.29893297552E+02  0.31741305608E+02  0.18840146094E+03  0.19343815602E+03  0.47000000000E+01 0. -1.
<mgrwt>
<rscale>  0 0.27459102E+03</rscale>
<asrwt>0</asrwt>
<pdfrwt beam="1">  1        1 0.10149283E+00 0.27459102E+03</pdfrwt>
<pdfrwt beam="2">  1       -1 0.43959281E-02 0.27459102E+03</pdfrwt>
<totfact> 0.65422697E+03</totfact>
</mgrwt>
</event>
<event>
 9    1  0.2098759E-002  0.2739272E+03  0.7818608E-02  0.1099053E+00
         -1   -1    0    0    0  501 -0.00000000000E+00  0.00000000000E+00  0.18286851601E+02  0.18286851601E+02  0.00000000000E+00 0. -1.
          1   -1    0    0  501    0  0.00000000000E+00 -0.00000000000E+00 -0.10258201813E+04  0.10258201813E+04  0.00000000000E+00 0. -1.
         36    2    1    2    0    0  0.14210854715E-13  0.35527136788E-14 -0.10075333297E+04  0.10441070329E+04  0.27392715400E+03 0.  0.
         25    2    3    3    0    0  0.48816150027E+02  0.44667227108E+01 -0.67561372370E+03  0.68717562989E+03  0.11555723490E+03 0.  0.
         25    2    3    3    0    0 -0.48816150027E+02 -0.44667227108E+01 -0.33191960599E+03  0.35693140301E+03  0.12176384315E+03 0.  0.
          5    1    4    4  502    0  0.75899496935E+02 -0.21702608623E+01 -0.62131092230E+03  0.62595111298E+03  0.47000000000E+01 0. -1.
         -5    1    4    4    0  502 -0.27083346907E+02  0.66369835731E+01 -0.54302801403E+02  0.61224516910E+02  0.47000000000E+01 0. -1.
          5    1    5    5  503    0 -0.72415643274E+02  0.30316603198E+02 -0.14165797755E+03  0.16202528946E+03  0.47000000000E+01 0.  1.
         -5    1    5    5    0  503  0.23599493246E+02 -0.34783325909E+02 -0.19026162844E+03  0.19490611355E+03  0.47000000000E+01 0.  1.
<mgrwt>
<rscale>  0 0.27392715E+03</rscale>
<asrwt>0</asrwt>
<pdfrwt beam="1">  1        1 0.15781852E+00 0.27392715E+03</pdfrwt>
<pdfrwt beam="2">  1       -1 0.28133612E-02 0.27392715E+03</pdfrwt>
<totfact> 0.63400098E+03</totfact>
</mgrwt>
</event>
<event>
 9    1  0.2098759E-002  0.2751986E+03  0.7818608E-02  0.1098341E+00
          1   -1    0    0  501    0  0.00000000000E+00  0.00000000000E+00  0.30359926106E+04  0.30359926106E+04  0.00000000000E+00 0. -1.
         -1   -1    0    0    0  501 -0.00000000000E+00 -0.00000000000E+00 -0.62363661103E+01  0.62363661103E+01  0.00000000000E+00 0. -1.
         36    2    1    2    0    0  0.00000000000E+00  0.00000000000E+00  0.30297562445E+04  0.30422289767E+04  0.27519855689E+03 0.  0.
         25    2    3    3    0    0 -0.14752950721E+02 -0.33145132697E+02  0.19985040580E+04  0.20027324697E+04  0.12491047207E+03 0.  0.
         25    2    3    3    0    0  0.14752950721E+02  0.33145132697E+02  0.10312521865E+04  0.10394965070E+04  0.12552157798E+03 0.  0.
          5    1    4    4  502    0 -0.51589649067E+02 -0.57721439701E+02  0.90332599685E+03  0.90664943781E+03  0.47000000000E+01 0.  1.
         -5    1    4    4    0  502  0.36836698346E+02  0.24576307003E+02  0.10951780612E+04  0.10960830319E+04  0.47000000000E+01 0.  1.
          5    1    5    5  503    0  0.45424420995E+02  0.96026169332E+01  0.14364155658E+03  0.15103170214E+03  0.47000000000E+01 0. -1.
         -5    1    5    5    0  503 -0.30671470274E+02  0.23542515764E+02  0.88761062990E+03  0.88846480485E+03  0.47000000000E+01 0. -1.
<mgrwt>
<rscale>  0 0.27519856E+03</rscale>
<asrwt>0</asrwt>
<pdfrwt beam="1">  1        1 0.46707461E+00 0.27519856E+03</pdfrwt>
<pdfrwt beam="2">  1       -1 0.95944336E-03 0.27519856E+03</pdfrwt>
<totfact> 0.13638203E+03</totfact>
</mgrwt>
</event>
<event>
 9    1  0.2098759E-002  0.2807765E+03  0.7818608E-02  0.1095266E+00
         -1   -1    0    0    0  501 -0.00000000000E+00  0.00000000000E+00  0.70640693567E+02  0.70640693567E+02  0.00000000000E+00 0. -1.
          1   -1    0    0  501    0  0.00000000000E+00 -0.00000000000E+00 -0.27900143180E+03  0.27900143180E+03  0.00000000000E+00 0. -1.
         36    2    1    2    0    0  0.00000000000E+00 -0.71054273576E-14 -0.20836073823E+03  0.34964212536E+03  0.28077645662E+03 0.  0.
         25    2    3    3    0    0  0.63096910449E+02  0.24685474351E+02 -0.82354228278E+02  0.16246952966E+03  0.12257053643E+03 0.  0.
         25    2    3    3    0    0 -0.63096910449E+02 -0.24685474351E+02 -0.12600650995E+03  0.18717259570E+03  0.12068698058E+03 0.  0.
          5    1    4    4  502    0 -0.16803468796E+02  0.52493805989E+02 -0.32221385144E+02  0.64017684208E+02  0.47000000000E+01 0. -1.
         -5    1    4    4    0  502  0.79900379245E+02 -0.27808331638E+02 -0.50132843134E+02  0.98451845451E+02  0.47000000000E+01 0. -1.
          5    1    5    5  503    0 -0.12745733482E+02 -0.46045272484E+02 -0.12317930898E+03  0.13220383127E+03  0.47000000000E+01 0.  1.
         -5    1    5    5    0  503 -0.50351176967E+02  0.21359798133E+02 -0.28272009658E+01  0.54968764435E+02  0.47000000000E+01 0.  1.
<mgrwt>
<rscale>  0 0.28077646E+03</rscale>
<asrwt>0</asrwt>
<pdfrwt beam="1">  1        1 0.42923297E-01 0.28077646E+03</pdfrwt>
<pdfrwt beam="2">  1       -1 0.10867799E-01 0.28077646E+03</pdfrwt>
<totfact> 0.51141645E+03</totfact>
</mgrwt>
</event>
<event>
 9    1  0.2098759E-002  0.2749222E+03  0.7818608E-02  0.1098495E+00
         -2   -1    0    0    0  501 -0.00000000000E+00  0.00000000000E+00  0.59661395878E+01  0.59661395878E+01  0.00000000000E+00 0. -1.
          2   -1    0    0  501    0  0.00000000000E+00 -0.00000000000E+00 -0.31671331100E+04  0.31671331100E+04  0.00000000000E+00 0. -1.
         36    2    1    2    0    0  0.35527136788E-14 -0.71054273576E-14 -0.31611669704E+04  0.31730992496E+04  0.27492223066E+03 0.  0.
         25    2    3    3    0    0  0.80102115258E+01  0.17453290090E+02 -0.98622108573E+03  0.99446232810E+03  0.12631116833E+03 0.  0.
         25    2    3    3    0    0 -0.80102115258E+01 -0.17453290090E+02 -0.21749458847E+04  0.21786369215E+04  0.12530145073E+03 0.  0.
          5    1    4    4  502    0  0.21146955739E+02  0.24694975913E+02 -0.97399271480E+03  0.97454652740E+03  0.47000000000E+01 0. -1.
         -5    1    4    4    0  502 -0.13136744213E+02 -0.72416858234E+01 -0.12228370928E+02  0.19915800703E+02  0.47000000000E+01 0. -1.
          5    1    5    5  503    0 -0.32765584465E+02 -0.64982421769E+02 -0.12792228131E+04  0.12812998846E+04  0.47000000000E+01 0. -1.
         -5    1    5    5    0  503  0.24755372939E+02  0.47529131679E+02 -0.89572307162E+03  0.89733703695E+03  0.47000000000E+01 0. -1.
<mgrwt>
<rscale>  0 0.27492223E+03</rscale>
<asrwt>0</asrwt>
<pdfrwt beam="1">  1        2 0.48725050E+00 0.27492223E+03</pdfrwt>
<pdfrwt beam="2">  1       -2 0.91786904E-03 0.27492223E+03</pdfrwt>
<totfact> 0.39896753E+03</totfact>
</mgrwt>
</event>
<event>
 9    1  0.2098759E-002  0.2744986E+03  0.7818608E-02  0.1098732E+00
          1   -1    0    0  501    0  0.00000000000E+00  0.00000000000E+00  0.57442234910E+03  0.57442234910E+03  0.00000000000E+00 0. -1.
         -1   -1    0    0    0  501 -0.00000000000E+00 -0.00000000000E+00 -0.32793593342E+02  0.32793593342E+02  0.00000000000E+00 0. -1.
         36    2    1    2    0    0 -0.35527136788E-14 -0.71054273576E-14  0.54162875576E+03  0.60721594244E+03  0.27449861874E+03 0.  0.
         25    2    3    3    0    0 -0.24543972510E+02  0.47307109407E+02  0.19900993690E+03  0.23816143972E+03  0.11948032137E+03 0.  0.
         25    2    3    3    0    0  0.24543972510E+02 -0.47307109407E+02  0.34261881885E+03  0.36905450272E+03  0.12638513268E+03 0.  0.
          5    1    4    4  502    0 -0.34860591531E+02  0.65406985327E+02  0.20324499715E+03  0.21638843185E+03  0.47000000000E+01 0.  1.
         -5    1    4    4    0  502  0.10316619021E+02 -0.18099875921E+02 -0.42350602439E+01  0.21773007869E+02  0.47000000000E+01 0.  1.
          5    1    5    5  503    0  0.29551715896E+02 -0.16302482048E+02  0.33456113631E+03  0.33629201412E+03  0.47000000000E+01 0. -1.
         -5    1    5    5    0  503 -0.50077433859E+01 -0.31004627358E+02  0.80576825418E+01  0.32762488602E+02  0.47000000000E+01 0. -1.
<mgrwt>
<rscale>  0 0.27449862E+03</rscale>
<asrwt>0</asrwt>
<pdfrwt beam="1">  1        1 0.88372662E-01 0.27449862E+03</pdfrwt>
<pdfrwt beam="2">  1       -1 0.50451686E-02 0.27449862E+03</pdfrwt>
<totfact> 0.64629544E+03</totfact>
</mgrwt>
</event>
<event>
 9    1  0.2098759E-002  0.2750873E+03  0.7818608E-02  0.1098403E+00
         -3   -1    0    0    0  501 -0.00000000000E+00  0.00000000000E+00  0.15911536408E+03  0.15911536408E+03  0.00000000000E+00 0. -1.
          3   -1    0    0  501    0  0.00000000000E+00 -0.00000000000E+00 -0.11889644327E+03  0.11889644327E+03  0.00000000000E+00 0. -1.
         36    2    1    2    0    0  0.00000000000E+00 -0.71054273576E-14  0.40218920811E+02  0.27801180735E+03  0.27508726513E+03 0.  0.
         25    2    3    3    0    0  0.29531928252E+02 -0.47468304145E+02  0.63941353497E+00  0.13457229661E+03  0.12240882109E+03 0.  0.
         25    2    3    3    0    0 -0.29531928252E+02  0.47468304145E+02  0.39579507276E+02  0.14343951074E+03  0.12602769998E+03 0.  0.
          5    1    4    4  502    0  0.94697380627E+01 -0.66365707030E+02  0.45893517659E+02  0.81378055836E+02  0.47000000000E+01 0.  1.
         -5    1    4    4    0  502  0.20062190189E+02  0.18897402885E+02 -0.45254104124E+02  0.53194240770E+02  0.47000000000E+01 0.  1.
          5    1    5    5  503    0  0.30146121874E+02  0.39102982140E+02 -0.24526831617E+02  0.55330708883E+02  0.47000000000E+01 0. -1.
         -5    1    5    5    0  503 -0.59678050125E+02  0.83653220052E+01  0.64106338894E+02  0.88108801861E+02  0.47000000000E+01 0. -1.
<mgrwt>
<rscale>  0 0.27508727E+03</rscale>
<asrwt>0</asrwt>
<pdfrwt beam="1">  1        3 0.18291760E-01 0.27508727E+03</pdfrwt>
<pdfrwt beam="2">  1       -3 0.24479287E-01 0.27508727E+03</pdfrwt>
<totfact> 0.10432678E+03</totfact>
</mgrwt>
</event>
<event>
 9    1  0.2098759E-002  0.2754767E+03  0.7818608E-02  0.1098185E+00
         -2   -1    0    0    0  501 -0.00000000000E+00  0.00000000000E+00  0.74532574590E+02  0.74532574590E+02  0.00000000000E+00 0.  1.
          2   -1    0    0  501    0  0.00000000000E+00 -0.00000000000E+00 -0.25454452170E+03  0.25454452170E+03  0.00000000000E+00 0.  1.
         36    2    1    2    0    0  0.00000000000E+00  0.00000000000E+00 -0.18001194711E+03  0.32907709629E+03  0.27547673985E+03 0.  0.
         25    2    3    3    0    0  0.17111833702E+02 -0.11798008986E+02 -0.23249094437E+02  0.12661630194E+03  0.12271576776E+03 0.  0.
         25    2    3    3    0    0 -0.17111833702E+02  0.11798008986E+02 -0.15676285267E+03  0.20246079435E+03  0.12642694888E+03 0.  0.
          5    1    4    4  502    0 -0.47684537966E+02 -0.26242778435E+02 -0.24910120117E+02  0.60042507154E+02  0.47000000000E+01 0.  1.
         -5    1    4    4    0  502  0.64796371668E+02  0.14444769448E+02  0.16610256805E+01  0.66573794785E+02  0.47000000000E+01 0.  1.
          5    1    5    5  503    0  0.25397548147E+02 -0.47919345675E+02 -0.72821881124E+02  0.90919830137E+02  0.47000000000E+01 0. -1.
         -5    1    5    5    0  503 -0.42509381848E+02  0.59717354662E+02 -0.83940971548E+02  0.11154096421E+03  0.47000000000E+01 0. -1.
<mgrwt>
<rscale>  0 0.27547674E+03</rscale>
<asrwt>0</asrwt>
<pdfrwt beam="1">  1        2 0.39160695E-01 0.27547674E+03</pdfrwt>
<pdfrwt beam="2">  1       -2 0.11466550E-01 0.27547674E+03</pdfrwt>
<totfact> 0.69085255E+03</totfact>
</mgrwt>
</event>
<event>
 9    1  0.2098759E-002  0.2821555E+03  0.7818608E-02  0.1094517E+00
          2   -1    0    0  501    0  0.00000000000E+00  0.00000000000E+00  0.13972359698E+04  0.13972359698E+04  0.00000000000E+00 0. -1.
         -2   -1    0    0    0  501 -0.00000000000E+00 -0.00000000000E+00 -0.14244500701E+02  0.14244500701E+02  0.00000000000E+00 0. -1.
         36    2    1    2    0    0  0.00000000000E+00 -0.17763568394E-14  0.13829914691E+04  0.14114804705E+04  0.28215548020E+03 0.  0.
         25    2    3    3    0    0 -0.37829021095E+02 -0.12125384574E+02  0.52465248161E+03  0.54066025808E+03  0.12439947113E+03 0.  0.
         25    2    3    3    0    0  0.37829021095E+02  0.12125384574E+02  0.85833898747E+03  0.87082021241E+03  0.14143537441E+03 0.  0.
          5    1    4    4  502    0 -0.82421702212E+02  0.11572742868E+01  0.36955539444E+03  0.37866602150E+03  0.47000000000E+01 0.  1.
         -5    1    4    4    0  502  0.44592681117E+02 -0.13282658861E+02  0.15509708717E+03  0.16199423658E+03  0.47000000000E+01 0.  1.
          5    1    5    5  503    0  0.14638544627E+02  0.57179776384E+02  0.73519138472E+03  0.73757187852E+03  0.47000000000E+01 0. -1.
         -5    1    5    5    0  503  0.23190476468E+02 -0.45054391809E+02  0.12314760275E+03  0.13324833388E+03  0.47000000000E+01 0. -1.
<mgrwt>
<rscale>  0 0.28215548E+03</rscale>
<asrwt>0</asrwt>
<pdfrwt beam="1">  1        2 0.21495927E+00 0.28215548E+03</pdfrwt>
<pdfrwt beam="2">  1       -2 0.21914627E-02 0.28215548E+03</pdfrwt>
<totfact> 0.10479333E+04</totfact>
</mgrwt>
</event>
<event>
 9    1  0.2098759E-002  0.2751030E+03  0.7818608E-02  0.1098394E+00
         -1   -1    0    0    0  501 -0.00000000000E+00  0.00000000000E+00  0.42570818360E+03  0.42570818360E+03  0.00000000000E+00 0.  1.
          1   -1    0    0  501    0  0.00000000000E+00 -0.00000000000E+00 -0.44444581031E+02  0.44444581031E+02  0.00000000000E+00 0.  1.
         36    2    1    2    0    0 -0.71054273576E-14  0.00000000000E+00  0.38126360257E+03  0.47015276463E+03  0.27510304878E+03 0.  0.
         25    2    3    3    0    0 -0.60945225621E+02 -0.40271311083E+02  0.14136368651E+03  0.20246661290E+03  0.12519160696E+03 0.  0.
         25    2    3    3    0    0  0.60945225621E+02  0.40271311083E+02  0.23989991606E+03  0.26768615173E+03  0.93636569140E+02 0.  0.
          5    1    4    4  502    0 -0.56545594476E+02  0.34559269965E+02  0.88315741105E+02  0.11051473894E+03  0.47000000000E+01 0. -1.
         -5    1    4    4    0  502 -0.43996311445E+01 -0.74830581048E+02  0.53047945405E+02  0.91951873966E+02  0.47000000000E+01 0. -1.
          5    1    5    5  503    0  0.39875806059E+02  0.36147620538E+02  0.23969437973E+03  0.24570758241E+03  0.47000000000E+01 0. -1.
         -5    1    5    5    0  503  0.21069419562E+02  0.41236905453E+01  0.20553633415E+00  0.21978569325E+02  0.47000000000E+01 0. -1.
<mgrwt>
<rscale>  0 0.27510305E+03</rscale>
<asrwt>0</asrwt>
<pdfrwt beam="1">  1        1 0.68376281E-02 0.27510305E+03</pdfrwt>
<pdfrwt beam="2">  1       -1 0.65493564E-01 0.27510305E+03</pdfrwt>
<totfact> 0.26340798E+03</totfact>
</mgrwt>
</event>
<event>
 9    1  0.2098759E-002  0.2752752E+03  0.7818608E-02  0.1098298E+00
         -2   -1    0    0    0  501 -0.00000000000E+00  0.00000000000E+00  0.94969115517E+01  0.94969115517E+01  0.00000000000E+00 0. -1.
          2   -1    0    0  501    0  0.00000000000E+00 -0.00000000000E+00 -0.19947646740E+04  0.19947646740E+04  0.00000000000E+00 0. -1.
         36    2    1    2    0    0  0.00000000000E+00  0.00000000000E+00 -0.19852677624E+04  0.20042615855E+04  0.27527516179E+03 0.  0.
         25    2    3    3    0    0 -0.36153571991E+02 -0.21297383505E+02 -0.72050716288E+03  0.73272773696E+03  0.12648598904E+03 0.  0.
         25    2    3    3    0    0  0.36153571991E+02  0.21297383505E+02 -0.12647605995E+04  0.12715338486E+04  0.12417042565E+03 0.  0.
          5    1    4    4  502    0 -0.54700059815E+02  0.36395169246E+00 -0.68383739723E+03  0.68603783048E+03  0.47000000000E+01 0.  1.
         -5    1    4    4    0  502  0.18546487824E+02 -0.21661335198E+02 -0.36669765654E+02  0.46689906471E+02  0.47000000000E+01 0.  1.
          5    1    5    5  503    0  0.78359505016E+02  0.26597740684E+02 -0.64607192982E+03  0.65136677865E+03  0.47000000000E+01 0. -1.
         -5    1    5    5    0  503 -0.42205933025E+02 -0.53003571793E+01 -0.61868866972E+03  0.62016706992E+03  0.47000000000E+01 0. -1.
<mgrwt>
<rscale>  0 0.27527516E+03</rscale>
<asrwt>0</asrwt>
<pdfrwt beam="1">  1        2 0.30688711E+00 0.27527516E+03</pdfrwt>
<pdfrwt beam="2">  1       -2 0.14610622E-02 0.27527516E+03</pdfrwt>
<totfact> 0.91674526E+03</totfact>
</mgrwt>
</event>
<event>
 9    1  0.2098759E-002  0.2745190E+03  0.7818608E-02  0.1098721E+00
          2   -1    0    0  501    0  0.00000000000E+00  0.00000000000E+00  0.60313112066E+03  0.60313112066E+03  0.00000000000E+00 0.  1.
         -2   -1    0    0    0  501 -0.00000000000E+00 -0.00000000000E+00 -0.31237276115E+02  0.31237276115E+02  0.00000000000E+00 0.  1.
         36    2    1    2    0    0  0.00000000000E+00  0.71054273576E-14  0.57189384454E+03  0.63436839678E+03  0.27451902193E+03 0.  0.
         25    2    3    3    0    0  0.46146711850E+02 -0.18861092605E+02  0.22499464202E+03  0.26208510243E+03  0.12482288312E+03 0.  0.
         25    2    3    3    0    0 -0.46146711850E+02  0.18861092605E+02  0.34689920252E+03  0.37228329434E+03  0.12558078956E+03 0.  0.
          5    1    4    4  502    0  0.23866120291E+02 -0.66217887217E+02  0.17845239143E+03  0.19188993275E+03  0.47000000000E+01 0. -1.
         -5    1    4    4    0  502  0.22280591558E+02  0.47356794612E+02  0.46542250595E+02  0.70195169681E+02  0.47000000000E+01 0. -1.
          5    1    5    5  503    0 -0.58079871008E+02  0.64310039619E+02  0.24656176197E+03  0.26138830325E+03  0.47000000000E+01 0.  1.
         -5    1    5    5    0  503  0.11933159158E+02 -0.45448947014E+02  0.10033744055E+03  0.11089499109E+03  0.47000000000E+01 0.  1.
<mgrwt>
<rscale>  0 0.27451902E+03</rscale>
<asrwt>0</asrwt>
<pdfrwt beam="1">  1        2 0.92789395E-01 0.27451902E+03</pdfrwt>
<pdfrwt beam="2">  1       -2 0.48057352E-02 0.27451902E+03</pdfrwt>
<totfact> 0.10381058E+04</totfact>
</mgrwt>
</event>
<event>
 9    1  0.2098759E-002  0.2750380E+03  0.7818608E-02  0.1098430E+00
         -1   -1    0    0    0  501 -0.00000000000E+00  0.00000000000E+00  0.76329718153E+03  0.76329718153E+03  0.00000000000E+00 0.  1.
          1   -1    0    0  501    0  0.00000000000E+00 -0.00000000000E+00 -0.24776023777E+02  0.24776023777E+02  0.00000000000E+00 0.  1.
         36    2    1    2    0    0  0.71054273576E-14  0.00000000000E+00  0.73852115776E+03  0.78807320531E+03  0.27503795461E+03 0.  0.
         25    2    3    3    0    0  0.12512383143E+02  0.14935012329E+00  0.23836615032E+03  0.27294454213E+03  0.13237718620E+03 0.  0.
         25    2    3    3    0    0 -0.12512383143E+02 -0.14935012329E+00  0.50015500744E+03  0.51512866318E+03  0.12266183646E+03 0.  0.
          5    1    4    4  502    0  0.64101076400E+02 -0.16862091190E+02  0.18532416532E+03  0.19687664760E+03  0.47000000000E+01 0.  1.
         -5    1    4    4    0  502 -0.51588693258E+02  0.17011441313E+02  0.53041984993E+02  0.76067894539E+02  0.47000000000E+01 0.  1.
          5    1    5    5  503    0  0.45723388454E+02 -0.12698723117E+02  0.35448312456E+03  0.35767619633E+03  0.47000000000E+01 0.  1.
         -5    1    5    5    0  503 -0.58235771596E+02  0.12549372993E+02  0.14567188288E+03  0.15745246685E+03  0.47000000000E+01 0.  1.
<mgrwt>
<rscale>  0 0.27503795E+03</rscale>
<asrwt>0</asrwt>
<pdfrwt beam="1">  1        1 0.38116965E-02 0.27503795E+03</pdfrwt>
<pdfrwt beam="2">  1       -1 0.11743032E+00 0.27503795E+03</pdfrwt>
<totfact> 0.16930670E+03</totfact>
</mgrwt>
</event>
<event>
 9    1  0.2098759E-002  0.2750779E+03  0.7818608E-02  0.1098408E+00
         -1   -1    0    0    0  501 -0.00000000000E+00  0.00000000000E+00  0.84242833365E+01  0.84242833365E+01  0.00000000000E+00 0.  1.
          1   -1    0    0  501    0  0.00000000000E+00 -0.00000000000E+00 -0.22455280582E+04  0.22455280582E+04  0.00000000000E+00 0.  1.
         36    2    1    2    0    0  0.00000000000E+00 -0.71054273576E-14 -0.22371037748E+04  0.22539523415E+04  0.27507791334E+03 0.  0.
         25    2    3    3    0    0  0.33279842241E+02 -0.41768291464E+02 -0.11605979610E+04  0.11681009526E+04  0.12091348241E+03 0.  0.
         25    2    3    3    0    0 -0.33279842241E+02  0.41768291464E+02 -0.10765058138E+04  0.10858513889E+04  0.13174343848E+03 0.  0.
          5    1    4    4  502    0  0.33525584493E+01 -0.51049144270E+02 -0.18534172883E+03  0.19233018802E+03  0.47000000000E+01 0. -1.
         -5    1    4    4    0  502  0.29927283792E+02  0.92808528065E+01 -0.97525623221E+03  0.97577076458E+03  0.47000000000E+01 0. -1.
          5    1    5    5  503    0  0.26546597800E+02 -0.34322538633E+02 -0.41426573663E+03  0.41655845815E+03  0.47000000000E+01 0. -1.
         -5    1    5    5    0  503 -0.59826440042E+02  0.76090830097E+02 -0.66224007715E+03  0.66929293074E+03  0.47000000000E+01 0. -1.
<mgrwt>
<rscale>  0 0.27507791E+03</rscale>
<asrwt>0</asrwt>
<pdfrwt beam="1">  1        1 0.34546584E+00 0.27507791E+03</pdfrwt>
<pdfrwt beam="2">  1       -1 0.12960436E-02 0.27507791E+03</pdfrwt>
<totfact> 0.30134358E+03</totfact>
</mgrwt>
</event>
<event>
 9    1  0.2098759E-002  0.2749998E+03  0.7818608E-02  0.1098452E+00
         -2   -1    0    0    0  501 -0.00000000000E+00  0.00000000000E+00  0.18085921901E+02  0.18085921901E+02  0.00000000000E+00 0.  1.
          2   -1    0    0  501    0  0.00000000000E+00 -0.00000000000E+00 -0.10453559427E+04  0.10453559427E+04  0.00000000000E+00 0.  1.
         36    2    1    2    0    0  0.00000000000E+00  0.14210854715E-13 -0.10272700208E+04  0.10634418646E+04  0.27499982500E+03 0.  0.
         25    2    3    3    0    0  0.38732714517E+02 -0.41937623529E+02 -0.47444328921E+03  0.49286501287E+03  0.12066689190E+03 0.  0.
         25    2    3    3    0    0 -0.38732714517E+02  0.41937623529E+02 -0.55282673155E+03  0.57057685169E+03  0.12915711796E+03 0.  0.
          5    1    4    4  502    0 -0.16933153596E+02 -0.69007765203E+02 -0.23989697368E+03  0.25024278477E+03  0.47000000000E+01 0. -1.
         -5    1    4    4    0  502  0.55665868112E+02  0.27070141674E+02 -0.23454631552E+03  0.24262222810E+03  0.47000000000E+01 0. -1.
          5    1    5    5  503    0 -0.10690435531E+02  0.53978268828E+02 -0.82747328596E+02  0.99484417409E+02  0.47000000000E+01 0.  1.
         -5    1    5    5    0  503 -0.28042278986E+02 -0.12040645298E+02 -0.47007940296E+03  0.47109243428E+03  0.47000000000E+01 0.  1.
<mgrwt>
<rscale>  0 0.27499983E+03</rscale>
<asrwt>0</asrwt>
<pdfrwt beam="1">  1        2 0.16082398E+00 0.27499983E+03</pdfrwt>
<pdfrwt beam="2">  1       -2 0.27824496E-02 0.27499983E+03</pdfrwt>
<totfact> 0.11647986E+04</totfact>
</mgrwt>
</event>
<event>
 9    1  0.2098759E-002  0.2742068E+03  0.7818608E-02  0.1098896E+00
          1   -1    0    0  501    0  0.00000000000E+00  0.00000000000E+00  0.28679021591E+03  0.28679021591E+03  0.00000000000E+00 0.  1.
         -1   -1    0    0    0  501 -0.00000000000E+00 -0.00000000000E+00 -0.65543892073E+02  0.65543892073E+02  0.00000000000E+00 0.  1.
         36    2    1    2    0    0 -0.71054273576E-14  0.71054273576E-14  0.22124632384E+03  0.35233410799E+03  0.27420683405E+03 0.  0.
         25    2    3    3    0    0 -0.41656288787E+02  0.23778256271E+02  0.76036675213E+02  0.15497795092E+03  0.12623762286E+03 0.  0.
         25    2    3    3    0    0  0.41656288787E+02 -0.23778256271E+02  0.14520964863E+03  0.19735615707E+03  0.12475158841E+03 0.  0.
          5    1    4    4  502    0 -0.68568630744E+02  0.58291995924E+02  0.59326996019E+02  0.10789530281E+03  0.47000000000E+01 0. -1.
         -5    1    4    4    0  502  0.26912341958E+02 -0.34513739652E+02  0.16709679194E+02  0.47082648112E+02  0.47000000000E+01 0. -1.
          5    1    5    5  503    0 -0.24494969648E+02 -0.18485784680E+02  0.12354912520E+03  0.12738996864E+03  0.47000000000E+01 0. -1.
         -5    1    5    5    0  503  0.66151258434E+02 -0.52924715913E+01  0.21660523430E+02  0.69966188429E+02  0.47000000000E+01 0. -1.
<mgrwt>
<rscale>  0 0.27420683E+03</rscale>
<asrwt>0</asrwt>
<pdfrwt beam="1">  1        1 0.44121571E-01 0.27420683E+03</pdfrwt>
<pdfrwt beam="2">  1       -1 0.10083676E-01 0.27420683E+03</pdfrwt>
<totfact> 0.55440821E+03</totfact>
</mgrwt>
</event>
<event>
 9    1  0.2098759E-002  0.2753445E+03  0.7818608E-02  0.1098259E+00
          1   -1    0    0  501    0  0.00000000000E+00  0.00000000000E+00  0.76803583391E+02  0.76803583391E+02  0.00000000000E+00 0.  1.
         -1   -1    0    0    0  501 -0.00000000000E+00 -0.00000000000E+00 -0.24678079268E+03  0.24678079268E+03  0.00000000000E+00 0.  1.
         36    2    1    2    0    0  0.00000000000E+00 -0.14210854715E-13 -0.16997720929E+03  0.32358437607E+03  0.27534450559E+03 0.  0.
         25    2    3    3    0    0  0.33132522713E+02 -0.37997349301E+02 -0.90643561123E+02  0.16272338941E+03  0.12538374565E+03 0.  0.
         25    2    3    3    0    0 -0.33132522713E+02  0.37997349301E+02 -0.79333648164E+02  0.16086098666E+03  0.13054067061E+03 0.  0.
          5    1    4    4  502    0  0.17452675065E+02 -0.51606511597E+02  0.13585605578E+02  0.56342582343E+02  0.47000000000E+01 0. -1.
         -5    1    4    4    0  502  0.15679847648E+02  0.13609162297E+02 -0.10422916670E+03  0.10638080707E+03  0.47000000000E+01 0. -1.
          5    1    5    5  503    0 -0.40275918459E+02  0.69529195789E+02 -0.61596327976E+01  0.80724777800E+02  0.47000000000E+01 0.  1.
         -5    1    5    5    0  503  0.71433957457E+01 -0.31531846488E+02 -0.73174015366E+02  0.80136208860E+02  0.47000000000E+01 0.  1.
<mgrwt>
<rscale>  0 0.27534451E+03</rscale>
<asrwt>0</asrwt>
<pdfrwt beam="1">  1        1 0.11815936E-01 0.27534451E+03</pdfrwt>
<pdfrwt beam="2">  1       -1 0.37966275E-01 0.27534451E+03</pdfrwt>
<totfact> 0.34547707E+03</totfact>
</mgrwt>
</event>
<event>
 9    1  0.2098759E-002  0.2734857E+03  0.7818608E-02  0.1099301E+00
         -2   -1    0    0    0  501 -0.00000000000E+00  0.00000000000E+00  0.11092297331E+02  0.11092297331E+02  0.00000000000E+00 0.  1.
          2   -1    0    0  501    0  0.00000000000E+00 -0.00000000000E+00 -0.16857294340E+04  0.16857294340E+04  0.00000000000E+00 0.  1.
         36    2    1    2    0    0  0.00000000000E+00  0.14210854715E-13 -0.16746371367E+04  0.16968217314E+04  0.27348573712E+03 0.  0.
         25    2    3    3    0    0 -0.34755857124E+02 -0.38684517607E+02 -0.10144884276E+04  0.10232332059E+04  0.12294292341E+03 0.  0.
         25    2    3    3    0    0  0.34755857124E+02  0.38684517607E+02 -0.66014870911E+03  0.67358852547E+03  0.12337229024E+03 0.  0.
          5    1    4    4  502    0  0.23005200317E+02  0.33475570898E+02 -0.29810475684E+03  0.30089597728E+03  0.47000000000E+01 0. -1.
         -5    1    4    4    0  502 -0.57761057441E+02 -0.72160088505E+02 -0.71638367074E+03  0.72233722861E+03  0.47000000000E+01 0. -1.
          5    1    5    5  503    0  0.75643662453E+02  0.44547253751E+02 -0.36021785883E+03  0.37079026054E+03  0.47000000000E+01 0.  1.
         -5    1    5    5    0  503 -0.40887805329E+02 -0.58627361435E+01 -0.29993085027E+03  0.30279826493E+03  0.47000000000E+01 0.  1.
<mgrwt>
<rscale>  0 0.27348574E+03</rscale>
<asrwt>0</asrwt>
<pdfrwt beam="1">  1        2 0.25934306E+00 0.27348574E+03</pdfrwt>
<pdfrwt beam="2">  1       -2 0.17065068E-02 0.27348574E+03</pdfrwt>
<totfact> 0.10612709E+04</totfact>
</mgrwt>
</event>
<event>
 9    1  0.2098759E-002  0.2746086E+03  0.7818608E-02  0.1098671E+00
         -1   -1    0    0    0  501 -0.00000000000E+00  0.00000000000E+00  0.32501567886E+02  0.32501567886E+02  0.00000000000E+00 0.  1.
          1   -1    0    0  501    0  0.00000000000E+00 -0.00000000000E+00 -0.58004812052E+03  0.58004812052E+03  0.00000000000E+00 0.  1.
         36    2    1    2    0    0  0.00000000000E+00  0.00000000000E+00 -0.54754655264E+03  0.61254968841E+03  0.27460861870E+03 0.  0.
         25    2    3    3    0    0  0.37748345936E+02 -0.14658380386E+02 -0.17849200766E+03  0.22022905110E+03  0.12248115125E+03 0.  0.
         25    2    3    3    0    0 -0.37748345936E+02  0.14658380386E+02 -0.36905454498E+03  0.39232063731E+03  0.12678493427E+03 0.  0.
          5    1    4    4  502    0 -0.14073811256E+02  0.44694814964E+02 -0.44941358985E+02  0.65096193401E+02  0.47000000000E+01 0. -1.
         -5    1    4    4    0  502  0.51822157192E+02 -0.59353195350E+02 -0.13355064868E+03  0.15513285770E+03  0.47000000000E+01 0. -1.
          5    1    5    5  503    0 -0.31865225468E+02  0.30563265486E+02 -0.31819310909E+02  0.54626590027E+02  0.47000000000E+01 0.  1.
         -5    1    5    5    0  503 -0.58831204685E+01 -0.15904885100E+02 -0.33723523407E+03  0.33769404729E+03  0.47000000000E+01 0.  1.
<mgrwt>
<rscale>  0 0.27460862E+03</rscale>
<asrwt>0</asrwt>
<pdfrwt beam="1">  1        1 0.89238170E-01 0.27460862E+03</pdfrwt>
<pdfrwt beam="2">  1       -1 0.50002414E-02 0.27460862E+03</pdfrwt>
<totfact> 0.64630936E+03</totfact>
</mgrwt>
</event>
<event>
 9    1  0.2098759E-002  0.2750619E+03  0.7818608E-02  0.1098417E+00
         -1   -1    0    0    0  501 -0.00000000000E+00  0.00000000000E+00  0.96845840464E+02  0.96845840464E+02  0.00000000000E+00 0. -1.
          1   -1    0    0  501    0  0.00000000000E+00 -0.00000000000E+00 -0.19530792306E+03  0.19530792306E+03  0.00000000000E+00 0. -1.
         36    2    1    2    0    0  0.00000000000E+00  0.00000000000E+00 -0.98462082592E+02  0.29215376352E+03  0.27506188364E+03 0.  0.
         25    2    3    3    0    0  0.60340066647E+02  0.92091566839E+01 -0.21072837626E+02  0.13173564900E+03  0.11482371063E+03 0.  0.
         25    2    3    3    0    0 -0.60340066647E+02 -0.92091566839E+01 -0.77389244966E+02  0.16041811452E+03  0.12656675717E+03 0.  0.
          5    1    4    4  502    0  0.65793825039E+02 -0.25351553481E+02  0.23867621143E+02  0.74587411915E+02  0.47000000000E+01 0.  1.
         -5    1    4    4    0  502 -0.54537583918E+01  0.34560710165E+02 -0.44940458769E+02  0.57148237086E+02  0.47000000000E+01 0.  1.
          5    1    5    5  503    0 -0.65469636991E+02  0.47355089784E+02 -0.60268054794E+02  0.10091137857E+03  0.47000000000E+01 0. -1.
         -5    1    5    5    0  503  0.51295703439E+01 -0.56564246468E+02 -0.17121190171E+02  0.59506735949E+02  0.47000000000E+01 0. -1.
<mgrwt>
<rscale>  0 0.27506188E+03</rscale>
<asrwt>0</asrwt>
<pdfrwt beam="1">  1        1 0.30047372E-01 0.27506188E+03</pdfrwt>
<pdfrwt beam="2">  1       -1 0.14899360E-01 0.27506188E+03</pdfrwt>
<totfact> 0.48778715E+03</totfact>
</mgrwt>
</event>
<event>
 9    1  0.2098759E-002  0.2748449E+03  0.7818608E-02  0.1098538E+00
          2   -1    0    0  501    0  0.00000000000E+00  0.00000000000E+00  0.39403397775E+03  0.39403397775E+03  0.00000000000E+00 0. -1.
         -2   -1    0    0    0  501 -0.00000000000E+00 -0.00000000000E+00 -0.47927175111E+02  0.47927175111E+02  0.00000000000E+00 0. -1.
         36    2    1    2    0    0  0.14210854715E-13  0.00000000000E+00  0.34610680264E+03  0.44196115286E+03  0.27484494138E+03 0.  0.
         25    2    3    3    0    0 -0.36053853257E+02 -0.13993075696E+01  0.10417559979E+03  0.16668680224E+03  0.12502038255E+03 0.  0.
         25    2    3    3    0    0  0.36053853257E+02  0.13993075696E+01  0.24193120285E+03  0.27527435062E+03  0.12626726734E+03 0.  0.
          5    1    4    4  502    0  0.27465572497E+02 -0.44958559844E+02  0.44979601018E+02  0.69432588052E+02  0.47000000000E+01 0. -1.
         -5    1    4    4    0  502 -0.63519425753E+02  0.43559252275E+02  0.59195998773E+02  0.97254214189E+02  0.47000000000E+01 0. -1.
          5    1    5    5  503    0 -0.38496067507E+02  0.29210795584E+02  0.12164035002E+03  0.13097206780E+03  0.47000000000E+01 0.  1.
         -5    1    5    5    0  503  0.74549920763E+02 -0.27811488014E+02  0.12029085283E+03  0.14430228282E+03  0.47000000000E+01 0.  1.
<mgrwt>
<rscale>  0 0.27484494E+03</rscale>
<asrwt>0</asrwt>
<pdfrwt beam="1">  1        2 0.60620610E-01 0.27484494E+03</pdfrwt>
<pdfrwt beam="2">  1       -2 0.73734118E-02 0.27484494E+03</pdfrwt>
<totfact> 0.86622528E+03</totfact>
</mgrwt>
</event>
<event>
 9    1  0.2098759E-002  0.2756449E+03  0.7818608E-02  0.1098092E+00
          1   -1    0    0  501    0  0.00000000000E+00  0.00000000000E+00  0.69067706042E+03  0.69067706042E+03  0.00000000000E+00 0. -1.
         -1   -1    0    0    0  501 -0.00000000000E+00 -0.00000000000E+00 -0.27502046686E+02  0.27502046686E+02  0.00000000000E+00 0. -1.
         36    2    1    2    0    0 -0.71054273576E-14  0.14210854715E-13  0.66317501373E+03  0.71817910711E+03  0.27564493655E+03 0.  0.
         25    2    3    3    0    0 -0.29270062335E+01  0.53277168677E+02  0.41198726894E+03  0.43331723070E+03  0.12322048767E+03 0.  0.
         25    2    3    3    0    0  0.29270062335E+01 -0.53277168677E+02  0.25118774479E+03  0.28486187641E+03  0.12330442583E+03 0.  0.
          5    1    4    4  502    0 -0.53487446459E+02 -0.54442349957E+01  0.12804635431E+03  0.13895504840E+03  0.47000000000E+01 0.  1.
         -5    1    4    4    0  502  0.50560440226E+02  0.58721403673E+02  0.28394091463E+03  0.29436218230E+03  0.47000000000E+01 0.  1.
          5    1    5    5  503    0  0.30847072056E+02  0.19804188269E+02  0.16186210356E+03  0.16602764316E+03  0.47000000000E+01 0. -1.
         -5    1    5    5    0  503 -0.27920065823E+02 -0.73081356946E+02  0.89325641236E+02  0.11883423324E+03  0.47000000000E+01 0. -1.
<mgrwt>
<rscale>  0 0.27564494E+03</rscale>
<asrwt>0</asrwt>
<pdfrwt beam="1">  1        1 0.10625800E+00 0.27564494E+03</pdfrwt>
<pdfrwt beam="2">  1       -1 0.42310846E-02 0.27564494E+03</pdfrwt>
<totfact> 0.64833443E+03</totfact>
</mgrwt>
</event>
<event>
 9    1  0.2098759E-002  0.2766844E+03  0.7818608E-02  0.1097514E+00
          2   -1    0    0  501    0  0.00000000000E+00  0.00000000000E+00  0.69154318922E+03  0.69154318922E+03  0.00000000000E+00 0.  1.
         -2   -1    0    0    0  501 -0.00000000000E+00 -0.00000000000E+00 -0.27675153774E+02  0.27675153774E+02  0.00000000000E+00 0.  1.
         36    2    1    2    0    0  0.00000000000E+00  0.00000000000E+00  0.66386803544E+03  0.71921834299E+03  0.27668439857E+03 0.  0.
         25    2    3    3    0    0 -0.51910663254E+02  0.13767138153E+02  0.36781834533E+03  0.39194857613E+03  0.12429440904E+03 0.  0.
         25    2    3    3    0    0  0.51910663254E+02 -0.13767138153E+02  0.29604969012E+03  0.32726976686E+03  0.12874715621E+03 0.  0.
          5    1    4    4  502    0  0.34763220874E+02  0.28533242764E+02  0.93775912372E+02  0.10410878546E+03  0.47000000000E+01 0. -1.
         -5    1    4    4    0  502 -0.86673884128E+02 -0.14766104610E+02  0.27404243295E+03  0.28783979067E+03  0.47000000000E+01 0. -1.
          5    1    5    5  503    0  0.75287604055E+02  0.77158836605E+01  0.85470302924E+02  0.11425857021E+03  0.47000000000E+01 0.  1.
         -5    1    5    5    0  503 -0.23376940801E+02 -0.21483021814E+02  0.21057938720E+03  0.21301119665E+03  0.47000000000E+01 0.  1.
<mgrwt>
<rscale>  0 0.27668440E+03</rscale>
<asrwt>0</asrwt>
<pdfrwt beam="1">  1        2 0.10639125E+00 0.27668440E+03</pdfrwt>
<pdfrwt beam="2">  1       -2 0.42577165E-02 0.27668440E+03</pdfrwt>
<totfact> 0.10604855E+04</totfact>
</mgrwt>
</event>
<event>
 9    1  0.2098759E-002  0.2745641E+03  0.7818608E-02  0.1098695E+00
          1   -1    0    0  501    0  0.00000000000E+00  0.00000000000E+00  0.10339442367E+04  0.10339442367E+04  0.00000000000E+00 0.  1.
         -1   -1    0    0    0  501 -0.00000000000E+00 -0.00000000000E+00 -0.18227643535E+02  0.18227643535E+02  0.00000000000E+00 0.  1.
         36    2    1    2    0    0  0.00000000000E+00 -0.35527136788E-14  0.10157165932E+04  0.10521718802E+04  0.27456414174E+03 0.  0.
         25    2    3    3    0    0 -0.40869137544E+02 -0.61286876338E+01  0.42118274683E+03  0.44138803767E+03  0.12538200173E+03 0.  0.
         25    2    3    3    0    0  0.40869137544E+02  0.61286876338E+01  0.59453384634E+03  0.61078384257E+03  0.13371073510E+03 0.  0.
          5    1    4    4  502    0  0.46064431488E+01  0.26397359026E+02  0.34853963952E+03  0.34959978575E+03  0.47000000000E+01 0. -1.
         -5    1    4    4    0  502 -0.45475580692E+02 -0.32526046660E+02  0.72643107306E+02  0.91788251915E+02  0.47000000000E+01 0. -1.
          5    1    5    5  503    0 -0.42920967967E+02  0.24727139776E+02  0.15066457886E+03  0.15866803792E+03  0.47000000000E+01 0. -1.
         -5    1    5    5    0  503  0.83790105511E+02 -0.18598452142E+02  0.44386926748E+03  0.45211580465E+03  0.47000000000E+01 0. -1.
<mgrwt>
<rscale>  0 0.27456414E+03</rscale>
<asrwt>0</asrwt>
<pdfrwt beam="1">  1        1 0.15906830E+00 0.27456414E+03</pdfrwt>
<pdfrwt beam="2">  1       -1 0.28042537E-02 0.27456414E+03</pdfrwt>
<totfact> 0.62831543E+03</totfact>
</mgrwt>
</event>
<event>
 9    1  0.2098759E-002  0.2750269E+03  0.7818608E-02  0.1098437E+00
         -1   -1    0    0    0  501 -0.00000000000E+00  0.00000000000E+00  0.21978622876E+02  0.21978622876E+02  0.00000000000E+00 0.  1.
          1   -1    0    0  501    0  0.00000000000E+00 -0.00000000000E+00 -0.86037911124E+03  0.86037911124E+03  0.00000000000E+00 0.  1.
         36    2    1    2    0    0  0.00000000000E+00 -0.71054273576E-14 -0.83840048837E+03  0.88235773412E+03  0.27502689335E+03 0.  0.
         25    2    3    3    0    0  0.31785450410E+02 -0.20070955269E+02 -0.27346017132E+03  0.30236027252E+03  0.12340223255E+03 0.  0.
         25    2    3    3    0    0 -0.31785450410E+02  0.20070955269E+02 -0.56494031705E+03  0.57999746160E+03  0.12580276440E+03 0.  0.
          5    1    4    4  502    0  0.60890804347E+02 -0.56850770421E+01 -0.25959990157E+03  0.26674746306E+03  0.47000000000E+01 0. -1.
         -5    1    4    4    0  502 -0.29105353937E+02 -0.14385878227E+02 -0.13860269752E+02  0.35612809462E+02  0.47000000000E+01 0. -1.
          5    1    5    5  503    0  0.88913638267E+01 -0.34987415267E+02 -0.58304522320E+02  0.68736328828E+02  0.47000000000E+01 0.  1.
         -5    1    5    5    0  503 -0.40676814236E+02  0.55058370536E+02 -0.50663579473E+03  0.51126113277E+03  0.47000000000E+01 0.  1.
<mgrwt>
<rscale>  0 0.27502689E+03</rscale>
<asrwt>0</asrwt>
<pdfrwt beam="1">  1        1 0.13236604E+00 0.27502689E+03</pdfrwt>
<pdfrwt beam="2">  1       -1 0.33813260E-02 0.27502689E+03</pdfrwt>
<totfact> 0.64793187E+03</totfact>
</mgrwt>
</event>
<event>
 9    1  0.2098759E-002  0.2686450E+03  0.7818608E-02  0.1102058E+00
          2   -1    0    0  501    0  0.00000000000E+00  0.00000000000E+00  0.48021861599E+03  0.48021861599E+03  0.00000000000E+00 0. -1.
         -2   -1    0    0    0  501 -0.00000000000E+00 -0.00000000000E+00 -0.37571507931E+02  0.37571507931E+02  0.00000000000E+00 0. -1.
         36    2    1    2    0    0  0.00000000000E+00  0.00000000000E+00  0.44264710805E+03  0.51779012392E+03  0.26864502630E+03 0.  0.
         25    2    3    3    0    0 -0.96035861440E+01 -0.46029199523E+02  0.26367545942E+03  0.29555286349E+03  0.12496331918E+03 0.  0.
         25    2    3    3    0    0  0.96035861440E+01  0.46029199523E+02  0.17897164863E+03  0.22223726043E+03  0.12307571991E+03 0.  0.
          5    1    4    4  502    0 -0.62813439939E+02 -0.11734651553E+01  0.14097781829E+03  0.15441418493E+03  0.47000000000E+01 0.  1.
         -5    1    4    4    0  502  0.53209853795E+02 -0.44855734367E+02  0.12269764113E+03  0.14113867856E+03  0.47000000000E+01 0.  1.
          5    1    5    5  503    0  0.31721847032E+02  0.25943186491E+02  0.53105621549E+00  0.41251624515E+02  0.47000000000E+01 0. -1.
         -5    1    5    5    0  503 -0.22118260888E+02  0.20086013031E+02  0.17844059242E+03  0.18098563591E+03  0.47000000000E+01 0. -1.
<mgrwt>
<rscale>  0 0.26864503E+03</rscale>
<asrwt>0</asrwt>
<pdfrwt beam="1">  1        2 0.73879783E-01 0.26864503E+03</pdfrwt>
<pdfrwt beam="2">  1       -2 0.57802323E-02 0.26864503E+03</pdfrwt>
<totfact> 0.10139453E+04</totfact>
</mgrwt>
</event>
<event>
 9    1  0.2098759E-002  0.2750882E+03  0.7818608E-02  0.1098402E+00
         -1   -1    0    0    0  501 -0.00000000000E+00  0.00000000000E+00  0.10252587746E+03  0.10252587746E+03  0.00000000000E+00 0.  1.
          1   -1    0    0  501    0  0.00000000000E+00 -0.00000000000E+00 -0.18452300290E+03  0.18452300290E+03  0.00000000000E+00 0.  1.
         36    2    1    2    0    0  0.71054273576E-14  0.00000000000E+00 -0.81997125441E+02  0.28704888037E+03  0.27508822428E+03 0.  0.
         25    2    3    3    0    0 -0.28934563371E+02  0.76203233023E+02 -0.74856920678E+01  0.15276033453E+03  0.12897884532E+03 0.  0.
         25    2    3    3    0    0  0.28934563371E+02 -0.76203233023E+02 -0.74511433373E+02  0.13428854583E+03  0.76402343928E+02 0.  0.
          5    1    4    4  502    0 -0.31592950180E+02  0.66036513017E+02  0.53439674088E+02  0.90756951906E+02  0.47000000000E+01 0. -1.
         -5    1    4    4    0  502  0.26583868096E+01  0.10166720006E+02 -0.60925366156E+02  0.62003382628E+02  0.47000000000E+01 0. -1.
          5    1    5    5  503    0  0.83249230510E+01 -0.70017612977E+02 -0.84457010031E+02  0.11012196427E+03  0.47000000000E+01 0. -1.
         -5    1    5    5    0  503  0.20609640320E+02 -0.61856200453E+01  0.99455766575E+01  0.24166581564E+02  0.47000000000E+01 0. -1.
<mgrwt>
<rscale>  0 0.27508822E+03</rscale>
<asrwt>0</asrwt>
<pdfrwt beam="1">  1        1 0.28388154E-01 0.27508822E+03</pdfrwt>
<pdfrwt beam="2">  1       -1 0.15773212E-01 0.27508822E+03</pdfrwt>
<totfact> 0.47868613E+03</totfact>
</mgrwt>
</event>
<event>
 9    1  0.2098759E-002  0.2755888E+03  0.7818608E-02  0.1098123E+00
          1   -1    0    0  501    0  0.00000000000E+00  0.00000000000E+00  0.60655325614E+02  0.60655325614E+02  0.00000000000E+00 0. -1.
         -1   -1    0    0    0  501 -0.00000000000E+00 -0.00000000000E+00 -0.31303599777E+03  0.31303599777E+03  0.00000000000E+00 0. -1.
         36    2    1    2    0    0 -0.35527136788E-14  0.00000000000E+00 -0.25238067215E+03  0.37369132338E+03  0.27558882687E+03 0.  0.
         25    2    3    3    0    0 -0.20699573496E+02  0.32094726430E+02 -0.57807342984E+02  0.14136692007E+03  0.12322488945E+03 0.  0.
         25    2    3    3    0    0  0.20699573496E+02 -0.32094726430E+02 -0.19457332917E+03  0.23232440331E+03  0.12106735375E+03 0.  0.
          5    1    4    4  502    0 -0.91107503999E+01 -0.46779220615E+02 -0.31353998702E+02  0.57240409579E+02  0.47000000000E+01 0. -1.
         -5    1    4    4    0  502 -0.11588823096E+02  0.78873947044E+02 -0.26453344282E+02  0.84126510488E+02  0.47000000000E+01 0. -1.
          5    1    5    5  503    0 -0.21660638289E+02 -0.81143497173E+01  0.72255617737E+01  0.24684502535E+02  0.47000000000E+01 0. -1.
         -5    1    5    5    0  503  0.42360211785E+02 -0.23980376712E+02 -0.20179889094E+03  0.20763990078E+03  0.47000000000E+01 0. -1.
<mgrwt>
<rscale>  0 0.27558883E+03</rscale>
<asrwt>0</asrwt>
<pdfrwt beam="1">  1        1 0.93315887E-02 0.27558883E+03</pdfrwt>
<pdfrwt beam="2">  1       -1 0.48159383E-01 0.27558883E+03</pdfrwt>
<totfact> 0.30923588E+03</totfact>
</mgrwt>
</event>
<event>
 9    1  0.2098759E-002  0.2752307E+03  0.7818608E-02  0.1098323E+00
         -1   -1    0    0    0  501 -0.00000000000E+00  0.00000000000E+00  0.15437319206E+02  0.15437319206E+02  0.00000000000E+00 0. -1.
          1   -1    0    0  501    0  0.00000000000E+00 -0.00000000000E+00 -0.12267665745E+04  0.12267665745E+04  0.00000000000E+00 0. -1.
         36    2    1    2    0    0  0.00000000000E+00  0.00000000000E+00 -0.12113292553E+04  0.12422038937E+04  0.27523071923E+03 0.  0.
         25    2    3    3    0    0  0.45802910383E+02  0.34982171392E+02 -0.66518880660E+03  0.67928250086E+03  0.12500763427E+03 0.  0.
         25    2    3    3    0    0 -0.45802910383E+02 -0.34982171392E+02 -0.54614044867E+03  0.56292139283E+03  0.12365049905E+03 0.  0.
          5    1    4    4  502    0 -0.21705471674E+01 -0.39963468423E+02 -0.32999672403E+03  0.33244806805E+03  0.47000000000E+01 0.  1.
         -5    1    4    4    0  502  0.47973457551E+02  0.74945639814E+02 -0.33519208257E+03  0.34683443280E+03  0.47000000000E+01 0.  1.
          5    1    5    5  503    0  0.14911788982E+02 -0.38427882025E+02 -0.42761492439E+03  0.42962271487E+03  0.47000000000E+01 0.  1.
         -5    1    5    5    0  503 -0.60714699365E+02  0.34457106332E+01 -0.11852552428E+03  0.13329867796E+03  0.47000000000E+01 0.  1.
<mgrwt>
<rscale>  0 0.27523072E+03</rscale>
<asrwt>0</asrwt>
<pdfrwt beam="1">  1        1 0.18873327E+00 0.27523072E+03</pdfrwt>
<pdfrwt beam="2">  1       -1 0.23749728E-02 0.27523072E+03</pdfrwt>
<totfact> 0.58406920E+03</totfact>
</mgrwt>
</event>
<event>
 9    1  0.2098759E-002  0.2748382E+03  0.7818608E-02  0.1098542E+00
         -2   -1    0    0    0  501 -0.00000000000E+00  0.00000000000E+00  0.35090360019E+02  0.35090360019E+02  0.00000000000E+00 0. -1.
          2   -1    0    0  501    0  0.00000000000E+00 -0.00000000000E+00 -0.53815383317E+03  0.53815383317E+03  0.00000000000E+00 0. -1.
         36    2    1    2    0    0  0.00000000000E+00 -0.35527136788E-14 -0.50306347315E+03  0.57324419318E+03  0.27483821970E+03 0.  0.
         25    2    3    3    0    0  0.50829874036E+02  0.18821332464E+02 -0.23129699355E+03  0.26810635405E+03  0.12427710651E+03 0.  0.
         25    2    3    3    0    0 -0.50829874036E+02 -0.18821332464E+02 -0.27176647960E+03  0.30513783914E+03  0.12772690708E+03 0.  0.
          5    1    4    4  502    0 -0.10520406350E+02 -0.45235490435E+02 -0.75304261681E+02  0.88598816990E+02  0.47000000000E+01 0.  1.
         -5    1    4    4    0  502  0.61350280386E+02  0.64056822899E+02 -0.15599273187E+03  0.17950753706E+03  0.47000000000E+01 0.  1.
          5    1    5    5  503    0 -0.13493868235E+02 -0.90825399133E+01  0.10687211206E+02  0.20022075182E+02  0.47000000000E+01 0. -1.
         -5    1    5    5    0  503 -0.37336005801E+02 -0.97387925507E+01 -0.28245369080E+03  0.28511576396E+03  0.47000000000E+01 0. -1.
<mgrwt>
<rscale>  0 0.27483822E+03</rscale>
<asrwt>0</asrwt>
<pdfrwt beam="1">  1        2 0.82792891E-01 0.27483822E+03</pdfrwt>
<pdfrwt beam="2">  1       -2 0.53985174E-02 0.27483822E+03</pdfrwt>
<totfact> 0.99137985E+03</totfact>
</mgrwt>
</event>
<event>
 9    1  0.2098759E-002  0.2759429E+03  0.7818608E-02  0.1097926E+00
         -2   -1    0    0    0  501 -0.00000000000E+00  0.00000000000E+00  0.60789476382E+02  0.60789476382E+02  0.00000000000E+00 0. -1.
          2   -1    0    0  501    0  0.00000000000E+00 -0.00000000000E+00 -0.31314824566E+03  0.31314824566E+03  0.00000000000E+00 0. -1.
         36    2    1    2    0    0 -0.35527136788E-14  0.00000000000E+00 -0.25235876928E+03  0.37393772204E+03  0.27594287730E+03 0.  0.
         25    2    3    3    0    0  0.30002473039E+02  0.43086846792E+02 -0.12893616537E+03  0.18691673480E+03  0.12472652586E+03 0.  0.
         25    2    3    3    0    0 -0.30002473039E+02 -0.43086846792E+02 -0.12342260391E+03  0.18702098724E+03  0.13033451484E+03 0.  0.
          5    1    4    4  502    0  0.23002973765E+02 -0.38670519053E+01  0.19650579624E+02  0.30859782436E+02  0.47000000000E+01 0. -1.
         -5    1    4    4    0  502  0.69994992740E+01  0.46953898698E+02 -0.14858674499E+03  0.15605695236E+03  0.47000000000E+01 0. -1.
          5    1    5    5  503    0 -0.42603157990E+02 -0.84840223457E+02 -0.70856966939E+02  0.11855670521E+03  0.47000000000E+01 0.  1.
         -5    1    5    5    0  503  0.12600684951E+02  0.41753376665E+02 -0.52565636969E+02  0.68464282032E+02  0.47000000000E+01 0.  1.
<mgrwt>
<rscale>  0 0.27594288E+03</rscale>
<asrwt>0</asrwt>
<pdfrwt beam="1">  1        2 0.48176653E-01 0.27594288E+03</pdfrwt>
<pdfrwt beam="2">  1       -2 0.93522271E-02 0.27594288E+03</pdfrwt>
<totfact> 0.76503904E+03</totfact>
</mgrwt>
</event>
<event>
 9    1  0.2098759E-002  0.2750723E+03  0.7818608E-02  0.1098411E+00
         -1   -1    0    0    0  501 -0.00000000000E+00  0.00000000000E+00  0.71594319634E+02  0.71594319634E+02  0.00000000000E+00 0. -1.
          1   -1    0    0  501    0  0.00000000000E+00 -0.00000000000E+00 -0.26421368158E+03  0.26421368158E+03  0.00000000000E+00 0. -1.
         36    2    1    2    0    0  0.00000000000E+00 -0.71054273576E-14 -0.19261936194E+03  0.33580800121E+03  0.27507234518E+03 0.  0.
         25    2    3    3    0    0 -0.41220251573E+02 -0.44240474287E+02 -0.80487905471E+02  0.16068740957E+03  0.12524301163E+03 0.  0.
         25    2    3    3    0    0  0.41220251573E+02  0.44240474287E+02 -0.11213145647E+03  0.17512059164E+03  0.12015585454E+03 0.  0.
          5    1    4    4  502    0  0.29825228879E+02  0.24518561570E+02 -0.13509754971E+02  0.41174113452E+02  0.47000000000E+01 0. -1.
         -5    1    4    4    0  502 -0.71045480453E+02 -0.68759035857E+02 -0.66978150500E+02  0.11951329612E+03  0.47000000000E+01 0. -1.
          5    1    5    5  503    0  0.62933259950E+02  0.23196881947E+02 -0.93537744554E+01  0.67884266488E+02  0.47000000000E+01 0. -1.
         -5    1    5    5    0  503 -0.21713008377E+02  0.21043592340E+02 -0.10277768202E+03  0.10723632515E+03  0.47000000000E+01 0. -1.
<mgrwt>
<rscale>  0 0.27507235E+03</rscale>
<asrwt>0</asrwt>
<pdfrwt beam="1">  1        1 0.40648259E-01 0.27507235E+03</pdfrwt>
<pdfrwt beam="2">  1       -1 0.11014511E-01 0.27507235E+03</pdfrwt>
<totfact> 0.53595230E+03</totfact>
</mgrwt>
</event>
<event>
 9    1  0.2098759E-002  0.2750124E+03  0.7818608E-02  0.1098445E+00
         -1   -1    0    0    0  501 -0.00000000000E+00  0.00000000000E+00  0.99053596268E+02  0.99053596268E+02  0.00000000000E+00 0. -1.
          1   -1    0    0  501    0  0.00000000000E+00 -0.00000000000E+00 -0.19088616870E+03  0.19088616870E+03  0.00000000000E+00 0. -1.
         36    2    1    2    0    0  0.00000000000E+00  0.35527136788E-14 -0.91832572435E+02  0.28993976497E+03  0.27501244690E+03 0.  0.
         25    2    3    3    0    0  0.15012228883E+02  0.25570631124E+02 -0.11362896072E+02  0.13645589868E+03  0.13270973094E+03 0.  0.
         25    2    3    3    0    0 -0.15012228883E+02 -0.25570631124E+02 -0.80469676363E+02  0.15348386629E+03  0.12728984329E+03 0.  0.
          5    1    4    4  502    0 -0.14117734663E+02  0.18563618688E+02 -0.68092308909E+02  0.72128849314E+02  0.47000000000E+01 0.  1.
         -5    1    4    4    0  502  0.29129963546E+02  0.70070124365E+01  0.56729412836E+02  0.64327049367E+02  0.47000000000E+01 0.  1.
          5    1    5    5  503    0  0.21499515435E+01 -0.72067640523E+02 -0.73753297895E+02  0.10324730530E+03  0.47000000000E+01 0. -1.
         -5    1    5    5    0  503 -0.17162180426E+02  0.46497009398E+02 -0.67163784680E+01  0.50236560986E+02  0.47000000000E+01 0. -1.
<mgrwt>
<rscale>  0 0.27501245E+03</rscale>
<asrwt>0</asrwt>
<pdfrwt beam="1">  1        1 0.29367103E-01 0.27501245E+03</pdfrwt>
<pdfrwt beam="2">  1       -1 0.15239015E-01 0.27501245E+03</pdfrwt>
<totfact> 0.48444379E+03</totfact>
</mgrwt>
</event>
<event>
 9    1  0.2098759E-002  0.2742567E+03  0.7818608E-02  0.1098868E+00
         -2   -1    0    0    0  501 -0.00000000000E+00  0.00000000000E+00  0.21513183334E+02  0.21513183334E+02  0.00000000000E+00 0.  1.
          2   -1    0    0  501    0  0.00000000000E+00 -0.00000000000E+00 -0.87407729177E+03  0.87407729177E+03  0.00000000000E+00 0.  1.
         36    2    1    2    0    0  0.00000000000E+00  0.00000000000E+00 -0.85256410844E+03  0.89559047510E+03  0.27425670475E+03 0.  0.
         25    2    3    3    0    0  0.14031580864E+02 -0.20266813186E+02 -0.32260381216E+03  0.34798716122E+03  0.12811797598E+03 0.  0.
         25    2    3    3    0    0 -0.14031580864E+02  0.20266813186E+02 -0.52996029627E+03  0.54760331389E+03  0.13566077096E+03 0.  0.
          5    1    4    4  502    0 -0.31530009706E+02  0.35207945393E+02 -0.20241887403E+03  0.20791640507E+03  0.47000000000E+01 0.  1.
         -5    1    4    4    0  502  0.45561590570E+02 -0.55474758579E+02 -0.12018493813E+03  0.14007075615E+03  0.47000000000E+01 0.  1.
          5    1    5    5  503    0 -0.28946493959E+02  0.19142142847E+02 -0.53075097565E+03  0.53190507546E+03  0.47000000000E+01 0. -1.
         -5    1    5    5    0  503  0.14914913095E+02  0.11246703388E+01  0.79067937536E+00  0.15698238432E+02  0.47000000000E+01 0. -1.
<mgrwt>
<rscale>  0 0.27425670E+03</rscale>
<asrwt>0</asrwt>
<pdfrwt beam="1">  1        2 0.13447341E+00 0.27425670E+03</pdfrwt>
<pdfrwt beam="2">  1       -2 0.33097211E-02 0.27425670E+03</pdfrwt>
<totfact> 0.11514039E+04</totfact>
</mgrwt>
</event>
<event>
 9    1  0.2098759E-002  0.2750245E+03  0.7818608E-02  0.1098438E+00
         -1   -1    0    0    0  501 -0.00000000000E+00  0.00000000000E+00  0.43072620815E+02  0.43072620815E+02  0.00000000000E+00 0.  1.
          1   -1    0    0  501    0  0.00000000000E+00 -0.00000000000E+00 -0.43901713077E+03  0.43901713077E+03  0.00000000000E+00 0.  1.
         36    2    1    2    0    0  0.35527136788E-14  0.00000000000E+00 -0.39594450995E+03  0.48208975158E+03  0.27502449640E+03 0.  0.
         25    2    3    3    0    0 -0.11307048427E+02  0.15260401499E+02 -0.29916104884E+03  0.32628866337E+03  0.12886516016E+03 0.  0.
         25    2    3    3    0    0  0.11307048427E+02 -0.15260401499E+02 -0.96783461111E+02  0.15580108821E+03  0.12060767614E+03 0.  0.
          5    1    4    4  502    0  0.25127436548E+02 -0.37372666584E+02 -0.43845805544E+02  0.63028953180E+02  0.47000000000E+01 0. -1.
         -5    1    4    4    0  502 -0.36434484975E+02  0.52633068083E+02 -0.25531524330E+03  0.26325971019E+03  0.47000000000E+01 0. -1.
          5    1    5    5  503    0  0.36615137188E+01  0.19019198828E+02  0.23263485375E+02  0.30633582203E+02  0.47000000000E+01 0.  1.
         -5    1    5    5    0  503  0.76455347082E+01 -0.34279600327E+02 -0.12004694649E+03  0.12516750601E+03  0.47000000000E+01 0.  1.
<mgrwt>
<rscale>  0 0.27502450E+03</rscale>
<asrwt>0</asrwt>
<pdfrwt beam="1">  1        1 0.67541100E-01 0.27502450E+03</pdfrwt>
<pdfrwt beam="2">  1       -1 0.66265567E-02 0.27502450E+03</pdfrwt>
<totfact> 0.61316284E+03</totfact>
</mgrwt>
</event>
<event>
 8    1  0.2098759E-002  0.2952689E+03  0.7818608E-02  0.1087630E+00
         -4   -1    0    0    0  501 -0.00000000000E+00  0.00000000000E+00  0.35892890331E+03  0.35892890331E+03  0.00000000000E+00 0. -1.
          4   -1    0    0  501    0  0.00000000000E+00 -0.00000000000E+00 -0.60724931201E+02  0.60724931201E+02  0.00000000000E+00 0. -1.
         25    2    1    2    0    0  0.19154085684E+00 -0.17254745236E+02  0.23944926159E+03  0.28016161190E+03  0.14441889414E+03 0.  0.
         25    2    1    2    0    0 -0.19154085684E+00  0.17254745236E+02  0.58754710516E+02  0.13949222261E+03  0.12533236310E+03 0.  0.
          5    1    3    3  502    0  0.56614561994E+02  0.66779090347E+01  0.19781706518E+03  0.20592106346E+03  0.47000000000E+01 0. -1.
         -5    1    3    3    0  502 -0.56423021137E+02 -0.23932654270E+02  0.41632196408E+02  0.74240548439E+02  0.47000000000E+01 0. -1.
          5    1    4    4  503    0 -0.57568520061E+02  0.25971096355E+02  0.49836680536E+02  0.80587946213E+02  0.47000000000E+01 0. -1.
         -5    1    4    4    0  503  0.57376979204E+02 -0.87163511193E+01  0.89180299800E+01  0.58904276400E+02  0.47000000000E+01 0. -1.
<mgrwt>
<rscale>  0 0.29526891E+03</rscale>
<asrwt>0</asrwt>
<pdfrwt beam="1">  1        4 0.93422973E-02 0.29526891E+03</pdfrwt>
<pdfrwt beam="2">  1       -4 0.55219830E-01 0.29526891E+03</pdfrwt>
<totfact> 0.50823745E+02</totfact>
</mgrwt>
</event>
<event>
 9    1  0.2098759E-002  0.2739379E+03  0.7818608E-02  0.1099047E+00
          4   -1    0    0  501    0  0.00000000000E+00  0.00000000000E+00  0.10525764033E+02  0.10525764033E+02  0.00000000000E+00 0.  1.
         -4   -1    0    0    0  501 -0.00000000000E+00 -0.00000000000E+00 -0.17823403165E+04  0.17823403165E+04  0.00000000000E+00 0.  1.
         36    2    1    2    0    0 -0.35527136788E-14  0.00000000000E+00 -0.17718145524E+04  0.17928660805E+04  0.27393790243E+03 0.  0.
         25    2    3    3    0    0 -0.15680481909E+02 -0.32656533840E+02 -0.11860395146E+04  0.11929081644E+04  0.12258805695E+03 0.  0.
         25    2    3    3    0    0  0.15680481909E+02  0.32656533840E+02 -0.58577503782E+03  0.59995791612E+03  0.12451818929E+03 0.  0.
          5    1    4    4  502    0 -0.27498692930E+02 -0.74152878598E+02 -0.59081782979E+03  0.59610621999E+03  0.47000000000E+01 0.  1.
         -5    1    4    4    0  502  0.11818211021E+02  0.41496344758E+02 -0.59522168483E+03  0.59680194439E+03  0.47000000000E+01 0.  1.
          5    1    5    5  503    0  0.32284316195E+02  0.48936154282E+02 -0.56607270846E+03  0.56911986921E+03  0.47000000000E+01 0.  1.
         -5    1    5    5    0  503 -0.16603834286E+02 -0.16279620442E+02 -0.19702329356E+02  0.30838046903E+02  0.47000000000E+01 0.  1.
<mgrwt>
<rscale>  0 0.27393790E+03</rscale>
<asrwt>0</asrwt>
<pdfrwt beam="1">  1        4 0.16193485E-02 0.27393790E+03</pdfrwt>
<pdfrwt beam="2">  1       -4 0.27420617E+00 0.27393790E+03</pdfrwt>
<totfact> 0.13547646E+02</totfact>
</mgrwt>
</event>
<event>
 9    1  0.2098759E-002  0.2748983E+03  0.7818608E-02  0.1098508E+00
         -3   -1    0    0    0  501 -0.00000000000E+00  0.00000000000E+00  0.67885247810E+02  0.67885247810E+02  0.00000000000E+00 0.  1.
          3   -1    0    0  501    0  0.00000000000E+00 -0.00000000000E+00 -0.27829720442E+03  0.27829720442E+03  0.00000000000E+00 0.  1.
         36    2    1    2    0    0  0.14210854715E-13  0.00000000000E+00 -0.21041195661E+03  0.34618245223E+03  0.27489834257E+03 0.  0.
         25    2    3    3    0    0 -0.35007734135E+02  0.23860305586E+02 -0.57135605435E+02  0.14369726854E+03  0.12485820736E+03 0.  0.
         25    2    3    3    0    0  0.35007734135E+02 -0.23860305586E+02 -0.15327635117E+03  0.20248518369E+03  0.12534653627E+03 0.  0.
          5    1    4    4  502    0 -0.40139475404E+02  0.82453329063E+01  0.32458817366E+02  0.52486453731E+02  0.47000000000E+01 0.  1.
         -5    1    4    4    0  502  0.51317412697E+01  0.15614972679E+02 -0.89594422801E+02  0.91210814804E+02  0.47000000000E+01 0.  1.
          5    1    5    5  503    0  0.63226075816E+02 -0.12604176433E+02 -0.15861688898E+03  0.17128283451E+03  0.47000000000E+01 0.  1.
         -5    1    5    5    0  503 -0.28218341681E+02 -0.11256129152E+02  0.53405378072E+01  0.31202349187E+02  0.47000000000E+01 0.  1.
<mgrwt>
<rscale>  0 0.27489834E+03</rscale>
<asrwt>0</asrwt>
<pdfrwt beam="1">  1        3 0.42814955E-01 0.27489834E+03</pdfrwt>
<pdfrwt beam="2">  1       -3 0.10443884E-01 0.27489834E+03</pdfrwt>
<totfact> 0.94908506E+02</totfact>
</mgrwt>
</event>
<event>
 9    1  0.2098759E-002  0.2746051E+03  0.7818608E-02  0.1098673E+00
          4   -1    0    0  501    0  0.00000000000E+00  0.00000000000E+00  0.51109399154E+03  0.51109399154E+03  0.00000000000E+00 0.  1.
         -4   -1    0    0    0  501 -0.00000000000E+00 -0.00000000000E+00 -0.36885575265E+02  0.36885575265E+02  0.00000000000E+00 0.  1.
         36    2    1    2    0    0 -0.35527136788E-14  0.14210854715E-13  0.47420841628E+03  0.54797956681E+03  0.27460514119E+03 0.  0.
         25    2    3    3    0    0 -0.20128060392E+02  0.52215886504E+02  0.18766326730E+03  0.23192746457E+03  0.12426266257E+03 0.  0.
         25    2    3    3    0    0  0.20128060392E+02 -0.52215886504E+02  0.28654514898E+03  0.31605210224E+03  0.12103376103E+03 0.  0.
          5    1    4    4  502    0  0.83728156559E+01  0.88221571428E+02  0.10722130112E+03  0.13918206465E+03  0.47000000000E+01 0.  1.
         -5    1    4    4    0  502 -0.28500876048E+02 -0.36005684924E+02  0.80441966184E+02  0.92745399918E+02  0.47000000000E+01 0.  1.
          5    1    5    5  503    0  0.12900970195E+02  0.10696227497E+01 -0.84509313602E+01  0.16158198094E+02  0.47000000000E+01 0.  1.
         -5    1    5    5    0  503  0.72270901971E+01 -0.53285509254E+02  0.29499608034E+03  0.29989390414E+03  0.47000000000E+01 0.  1.
<mgrwt>
<rscale>  0 0.27460514E+03</rscale>
<asrwt>0</asrwt>
<pdfrwt beam="1">  1        4 0.78629840E-01 0.27460514E+03</pdfrwt>
<pdfrwt beam="2">  1       -4 0.56747042E-02 0.27460514E+03</pdfrwt>
<totfact> 0.53757970E+02</totfact>
</mgrwt>
</event>
<event>
 9    1  0.2098759E-002  0.2748809E+03  0.7818608E-02  0.1098518E+00
         -1   -1    0    0    0  501 -0.00000000000E+00  0.00000000000E+00  0.67917487549E+02  0.67917487549E+02  0.00000000000E+00 0.  1.
          1   -1    0    0  501    0  0.00000000000E+00 -0.00000000000E+00 -0.27812985537E+03  0.27812985537E+03  0.00000000000E+00 0.  1.
         36    2    1    2    0    0  0.00000000000E+00  0.00000000000E+00 -0.21021236782E+03  0.34604734292E+03  0.27488092687E+03 0.  0.
         25    2    3    3    0    0  0.44410647202E+01  0.15102004126E+02 -0.40847955460E+02  0.13360722678E+03  0.12623209575E+03 0.  0.
         25    2    3    3    0    0 -0.44410647202E+01 -0.15102004126E+02 -0.16936441236E+03  0.21244011614E+03  0.12727413401E+03 0.  0.
          5    1    4    4  502    0  0.21609693637E+02  0.46898749107E+02  0.25597400443E+02  0.57825499879E+02  0.47000000000E+01 0.  1.
         -5    1    4    4    0  502 -0.17168628916E+02 -0.31796744981E+02 -0.66445355903E+02  0.75781726896E+02  0.47000000000E+01 0.  1.
          5    1    5    5  503    0  0.48925449561E+02 -0.25222160768E+02 -0.14001979692E+03  0.15052405302E+03  0.47000000000E+01 0. -1.
         -5    1    5    5    0  503 -0.53366514281E+02  0.10120156642E+02 -0.29344615437E+02  0.61916063119E+02  0.47000000000E+01 0. -1.
<mgrwt>
<rscale>  0 0.27488093E+03</rscale>
<asrwt>0</asrwt>
<pdfrwt beam="1">  1        1 0.42789209E-01 0.27488093E+03</pdfrwt>
<pdfrwt beam="2">  1       -1 0.10448844E-01 0.27488093E+03</pdfrwt>
<totfact> 0.54534769E+03</totfact>
</mgrwt>
</event>
<event>
 9    1  0.2098759E-002  0.2745765E+03  0.7818608E-02  0.1098689E+00
          1   -1    0    0  501    0  0.00000000000E+00  0.00000000000E+00  0.98907859690E+02  0.98907859690E+02  0.00000000000E+00 0.  1.
         -1   -1    0    0    0  501 -0.00000000000E+00 -0.00000000000E+00 -0.19056177287E+03  0.19056177287E+03  0.00000000000E+00 0.  1.
         36    2    1    2    0    0  0.71054273576E-14  0.00000000000E+00 -0.91653913185E+02  0.28946963256E+03  0.27457645270E+03 0.  0.
         25    2    3    3    0    0  0.38432630122E+02  0.19178676274E+02 -0.76116400560E+02  0.15492005993E+03  0.12791258677E+03 0.  0.
         25    2    3    3    0    0 -0.38432630122E+02 -0.19178676274E+02 -0.15537512625E+02  0.13454957263E+03  0.12655941101E+03 0.  0.
          5    1    4    4  502    0 -0.75567038957E+01  0.49232684471E+02 -0.85427984845E+02  0.98999957519E+02  0.47000000000E+01 0. -1.
         -5    1    4    4    0  502  0.45989334018E+02 -0.30054008197E+02  0.93115842850E+01  0.55920102414E+02  0.47000000000E+01 0. -1.
          5    1    5    5  503    0 -0.43196013676E+02 -0.53307431952E+02  0.31833247651E+02  0.75782739161E+02  0.47000000000E+01 0. -1.
         -5    1    5    5    0  503  0.47633835535E+01  0.34128755677E+02 -0.47370760276E+02  0.58766833470E+02  0.47000000000E+01 0. -1.
<mgrwt>
<rscale>  0 0.27457645E+03</rscale>
<asrwt>0</asrwt>
<pdfrwt beam="1">  1        1 0.15216594E-01 0.27457645E+03</pdfrwt>
<pdfrwt beam="2">  1       -1 0.29317195E-01 0.27457645E+03</pdfrwt>
<totfact> 0.38644940E+03</totfact>
</mgrwt>
</event>
<event>
 9    1  0.2098759E-002  0.2754899E+03  0.7818608E-02  0.1098178E+00
          2   -1    0    0  501    0  0.00000000000E+00  0.00000000000E+00  0.11812292607E+04  0.11812292607E+04  0.00000000000E+00 0. -1.
         -2   -1    0    0    0  501 -0.00000000000E+00 -0.00000000000E+00 -0.16062649822E+02  0.16062649822E+02  0.00000000000E+00 0. -1.
         36    2    1    2    0    0 -0.17763568394E-14  0.00000000000E+00  0.11651666109E+04  0.11972919105E+04  0.27548990526E+03 0.  0.
         25    2    3    3    0    0 -0.36814065362E+01  0.25619708518E+02  0.78577739821E+03  0.79680209579E+03  0.12952813631E+03 0.  0.
         25    2    3    3    0    0  0.36814065362E+01 -0.25619708518E+02  0.37938921269E+03  0.40048981476E+03  0.12564232885E+03 0.  0.
          5    1    4    4  502    0 -0.30914188989E+02 -0.27848565549E+02  0.60126357688E+03  0.60271984252E+03  0.47000000000E+01 0.  1.
         -5    1    4    4    0  502  0.27232782452E+02  0.53468274067E+02  0.18451382133E+03  0.19408225327E+03  0.47000000000E+01 0.  1.
          5    1    5    5  503    0 -0.15092632336E+02  0.48118643324E+02  0.12339794726E+03  0.13338791090E+03  0.47000000000E+01 0. -1.
         -5    1    5    5    0  503  0.18774038872E+02 -0.73738351841E+02  0.25599126543E+03  0.26710190386E+03  0.47000000000E+01 0. -1.
<mgrwt>
<rscale>  0 0.27548991E+03</rscale>
<asrwt>0</asrwt>
<pdfrwt beam="1">  1        2 0.18172751E+00 0.27548991E+03</pdfrwt>
<pdfrwt beam="2">  1       -2 0.24711778E-02 0.27548991E+03</pdfrwt>
<totfact> 0.11565002E+04</totfact>
</mgrwt>
</event>
<event>
 9    1  0.2098759E-002  0.2741711E+03  0.7818608E-02  0.1098916E+00
          1   -1    0    0  501    0  0.00000000000E+00  0.00000000000E+00  0.17766439757E+04  0.17766439757E+04  0.00000000000E+00 0. -1.
         -1   -1    0    0    0  501 -0.00000000000E+00 -0.00000000000E+00 -0.10577500446E+02  0.10577500446E+02  0.00000000000E+00 0. -1.
         36    2    1    2    0    0  0.00000000000E+00  0.35527136788E-14  0.17660664752E+04  0.17872214761E+04  0.27417113228E+03 0.  0.
         25    2    3    3    0    0 -0.20299057470E+02  0.24385077168E+02  0.11068805572E+04  0.11154703650E+04  0.13447261307E+03 0.  0.
         25    2    3    3    0    0  0.20299057470E+02 -0.24385077168E+02  0.65918591803E+03  0.67175111107E+03  0.12536665018E+03 0.  0.
          5    1    4    4  502    0 -0.60337917469E+02  0.18955691383E+02  0.98380020439E+03  0.98584223620E+03  0.47000000000E+01 0.  1.
         -5    1    4    4    0  502  0.40038859998E+02  0.54293857844E+01  0.12308035280E+03  0.12962812884E+03  0.47000000000E+01 0.  1.
          5    1    5    5  503    0 -0.18394817784E+02 -0.51779440958E+02  0.14134671747E+03  0.15172496290E+03  0.47000000000E+01 0.  1.
         -5    1    5    5    0  503  0.38693875254E+02  0.27394363791E+02  0.51783920056E+03  0.52002614817E+03  0.47000000000E+01 0.  1.
<mgrwt>
<rscale>  0 0.27417113E+03</rscale>
<asrwt>0</asrwt>
<pdfrwt beam="1">  1        1 0.27332961E+00 0.27417113E+03</pdfrwt>
<pdfrwt beam="2">  1       -1 0.16273092E-02 0.27417113E+03</pdfrwt>
<totfact> 0.43675599E+03</totfact>
</mgrwt>
</event>
<event>
 9    1  0.2098759E-002  0.2762607E+03  0.7818608E-02  0.1097749E+00
          4   -1    0    0  501    0  0.00000000000E+00  0.00000000000E+00  0.33553157003E+02  0.33553157003E+02  0.00000000000E+00 0. -1.
         -4   -1    0    0    0  501 -0.00000000000E+00 -0.00000000000E+00 -0.56864958154E+03  0.56864958154E+03  0.00000000000E+00 0. -1.
         36    2    1    2    0    0  0.00000000000E+00  0.00000000000E+00 -0.53509642453E+03  0.60220273854E+03  0.27626066451E+03 0.  0.
         25    2    3    3    0    0  0.63073125272E+02  0.72871058402E+01 -0.29846563875E+03  0.33075332582E+03  0.12761153547E+03 0.  0.
         25    2    3    3    0    0 -0.63073125272E+02 -0.72871058402E+01 -0.23663078579E+03  0.27144941272E+03  0.11687315278E+03 0.  0.
          5    1    4    4  502    0  0.38797089325E+02  0.53436769291E+02 -0.25265499911E+03  0.26118449615E+03  0.47000000000E+01 0. -1.
         -5    1    4    4    0  502  0.24276035946E+02 -0.46149663451E+02 -0.45810639634E+02  0.69568829669E+02  0.47000000000E+01 0. -1.
          5    1    5    5  503    0 -0.47816712480E+02 -0.60585259145E+02 -0.13415729633E+03  0.15484599374E+03  0.47000000000E+01 0. -1.
         -5    1    5    5    0  503 -0.15256412792E+02  0.53298153305E+02 -0.10247348946E+03  0.11660341898E+03  0.47000000000E+01 0. -1.
<mgrwt>
<rscale>  0 0.27626066E+03</rscale>
<asrwt>0</asrwt>
<pdfrwt beam="1">  1        4 0.51620243E-02 0.27626066E+03</pdfrwt>
<pdfrwt beam="2">  1       -4 0.87484548E-01 0.27626066E+03</pdfrwt>
<totfact> 0.49369296E+02</totfact>
</mgrwt>
</event>
<event>
 9    1  0.2098759E-002  0.2732079E+03  0.7818608E-02  0.1099458E+00
          1   -1    0    0  501    0  0.00000000000E+00  0.00000000000E+00  0.44627159867E+03  0.44627159867E+03  0.00000000000E+00 0. -1.
         -1   -1    0    0    0  501 -0.00000000000E+00 -0.00000000000E+00 -0.41814536010E+02  0.41814536010E+02  0.00000000000E+00 0. -1.
         36    2    1    2    0    0  0.00000000000E+00 -0.11102230246E-14  0.40445706266E+03  0.48808613468E+03  0.27320790496E+03 0.  0.
         25    2    3    3    0    0  0.23299284498E+02  0.18609116727E+01  0.28692191709E+03  0.31612519136E+03  0.13063165948E+03 0.  0.
         25    2    3    3    0    0 -0.23299284498E+02 -0.18609116727E+01  0.11753514557E+03  0.17196094331E+03  0.12332775815E+03 0.  0.
          5    1    4    4  502    0  0.71146874255E+01  0.37482692308E+01 -0.12851779578E+02  0.15872193853E+02  0.47000000000E+01 0.  1.
         -5    1    4    4    0  502  0.16184597073E+02 -0.18873575581E+01  0.29977369667E+03  0.30025299751E+03  0.47000000000E+01 0.  1.
          5    1    5    5  503    0  0.46591441455E+02  0.11638919512E+02  0.74146177577E+02  0.88464526866E+02  0.47000000000E+01 0. -1.
         -5    1    5    5    0  503 -0.69890725953E+02 -0.13499831184E+02  0.43388967990E+02  0.83496416447E+02  0.47000000000E+01 0. -1.
<mgrwt>
<rscale>  0 0.27320790E+03</rscale>
<asrwt>0</asrwt>
<pdfrwt beam="1">  1        1 0.68657165E-01 0.27320790E+03</pdfrwt>
<pdfrwt beam="2">  1       -1 0.64330059E-02 0.27320790E+03</pdfrwt>
<totfact> 0.62764797E+03</totfact>
</mgrwt>
</event>
<event>
 8    1  0.2098759E-002  0.3000285E+03  0.7818608E-02  0.1085226E+00
         -2   -1    0    0    0  501 -0.00000000000E+00  0.00000000000E+00  0.23712367782E+02  0.23712367782E+02  0.00000000000E+00 0. -1.
          2   -1    0    0  501    0  0.00000000000E+00 -0.00000000000E+00 -0.94905198017E+03  0.94905198017E+03  0.00000000000E+00 0. -1.
         25    2    1    2    0    0 -0.40923569654E+02 -0.57105090772E+02 -0.14598340592E+03  0.18050942382E+03  0.79603814852E+02 0.  0.
         25    2    1    2    0    0  0.40923569654E+02  0.57105090772E+02 -0.77935620647E+03  0.79225492413E+03  0.12383875929E+03 0.  0.
          5    1    3    3  502    0 -0.54882401696E+02 -0.90113963899E+01 -0.79760180146E+02  0.97350190641E+02  0.47000000000E+01 0. -1.
         -5    1    3    3    0  502  0.13958832042E+02 -0.48093694382E+02 -0.66223225772E+02  0.83159233179E+02  0.47000000000E+01 0. -1.
          5    1    4    4  503    0  0.75218043608E+02  0.61926179210E+02 -0.41882874171E+03  0.43003745260E+03  0.47000000000E+01 0. -1.
         -5    1    4    4    0  503 -0.34294473954E+02 -0.48210884380E+01 -0.36052746476E+03  0.36221747153E+03  0.47000000000E+01 0. -1.
<mgrwt>
<rscale>  0 0.30002846E+03</rscale>
<asrwt>0</asrwt>
<pdfrwt beam="1">  1        2 0.14600798E+00 0.30002846E+03</pdfrwt>
<pdfrwt beam="2">  1       -2 0.36480571E-02 0.30002846E+03</pdfrwt>
<totfact> 0.89298611E+03</totfact>
</mgrwt>
</event>
<event>
 9    1  0.2098759E-002  0.2757482E+03  0.7818608E-02  0.1098034E+00
          2   -1    0    0  501    0  0.00000000000E+00  0.00000000000E+00  0.15887516929E+03  0.15887516929E+03  0.00000000000E+00 0.  1.
         -2   -1    0    0    0  501 -0.00000000000E+00 -0.00000000000E+00 -0.11964911482E+03  0.11964911482E+03  0.00000000000E+00 0.  1.
         36    2    1    2    0    0 -0.35527136788E-14  0.00000000000E+00  0.39226054472E+02  0.27852428412E+03  0.27574824295E+03 0.  0.
         25    2    3    3    0    0 -0.17070808329E+02  0.38512730102E+02  0.29631422205E+02  0.14520413127E+03  0.13576293927E+03 0.  0.
         25    2    3    3    0    0  0.17070808329E+02 -0.38512730102E+02  0.95946322672E+01  0.13332015284E+03  0.12612518903E+03 0.  0.
          5    1    4    4  502    0 -0.83089080582E+01 -0.44313439409E+02  0.40864431801E+02  0.61030407600E+02  0.47000000000E+01 0.  1.
         -5    1    4    4    0  502 -0.87619002704E+01  0.82826169511E+02 -0.11233009597E+02  0.84173723672E+02  0.47000000000E+01 0.  1.
          5    1    5    5  503    0  0.54559316862E+02 -0.11002201300E+02  0.47360891723E+02  0.73231902574E+02  0.47000000000E+01 0.  1.
         -5    1    5    5    0  503 -0.37488508533E+02 -0.27510528802E+02 -0.37766259456E+02  0.60088250268E+02  0.47000000000E+01 0.  1.
<mgrwt>
<rscale>  0 0.27574824E+03</rscale>
<asrwt>0</asrwt>
<pdfrwt beam="1">  1        2 0.24442334E-01 0.27574824E+03</pdfrwt>
<pdfrwt beam="2">  1       -2 0.18407556E-01 0.27574824E+03</pdfrwt>
<totfact> 0.53116857E+03</totfact>
</mgrwt>
</event>
<event>
 9    1  0.2098759E-002  0.2749038E+03  0.7818608E-02  0.1098505E+00
         -2   -1    0    0    0  501 -0.00000000000E+00  0.00000000000E+00  0.16204278838E+02  0.16204278838E+02  0.00000000000E+00 0.  1.
          2   -1    0    0  501    0  0.00000000000E+00 -0.00000000000E+00 -0.11659279306E+04  0.11659279306E+04  0.00000000000E+00 0.  1.
         36    2    1    2    0    0  0.14210854715E-13 -0.35527136788E-14 -0.11497236517E+04  0.11821322094E+04  0.27490377438E+03 0.  0.
         25    2    3    3    0    0 -0.57769975399E+02 -0.29917818925E+02 -0.51216217518E+03  0.53104241025E+03  0.12435232950E+03 0.  0.
         25    2    3    3    0    0  0.57769975399E+02  0.29917818925E+02 -0.63756147655E+03  0.65108979916E+03  0.11489492695E+03 0.  0.
          5    1    4    4  502    0  0.18698643394E+02  0.21162878382E+02 -0.35685296732E+02  0.45749722284E+02  0.47000000000E+01 0.  1.
         -5    1    4    4    0  502 -0.76468618794E+02 -0.51080697307E+02 -0.47647687845E+03  0.48529268797E+03  0.47000000000E+01 0.  1.
          5    1    5    5  503    0  0.32619500921E+01  0.46344496801E+02 -0.49949395868E+03  0.50167196201E+03  0.47000000000E+01 0. -1.
         -5    1    5    5    0  503  0.54508025307E+02 -0.16426677876E+02 -0.13806751787E+03  0.14941783715E+03  0.47000000000E+01 0. -1.
<mgrwt>
<rscale>  0 0.27490377E+03</rscale>
<asrwt>0</asrwt>
<pdfrwt beam="1">  1        2 0.17937356E+00 0.27490377E+03</pdfrwt>
<pdfrwt beam="2">  1       -2 0.24929655E-02 0.27490377E+03</pdfrwt>
<totfact> 0.11647791E+04</totfact>
</mgrwt>
</event>
<event>
 9    1  0.2098759E-002  0.2750086E+03  0.7818608E-02  0.1098447E+00
         -2   -1    0    0    0  501 -0.00000000000E+00  0.00000000000E+00  0.15730238688E+03  0.15730238688E+03  0.00000000000E+00 0. -1.
          2   -1    0    0  501    0  0.00000000000E+00 -0.00000000000E+00 -0.12019799135E+03  0.12019799135E+03  0.00000000000E+00 0. -1.
         36    2    1    2    0    0  0.00000000000E+00  0.14210854715E-13  0.37104395525E+02  0.27750037823E+03  0.27500858850E+03 0.  0.
         25    2    3    3    0    0  0.33943805736E+02  0.46769650174E+02  0.46933281631E+02  0.14426520428E+03  0.12357238412E+03 0.  0.
         25    2    3    3    0    0 -0.33943805736E+02 -0.46769650174E+02 -0.98288861059E+01  0.13323517395E+03  0.11964707456E+03 0.  0.
          5    1    4    4  502    0  0.59720255270E+02  0.14578084411E+02  0.72768419364E+02  0.95374851462E+02  0.47000000000E+01 0. -1.
         -5    1    4    4    0  502 -0.25776449535E+02  0.32191565763E+02 -0.25835137733E+02  0.48890352817E+02  0.47000000000E+01 0. -1.
          5    1    5    5  503    0  0.24565140151E+02 -0.65276237572E+02 -0.14923524559E+02  0.71478912187E+02  0.47000000000E+01 0. -1.
         -5    1    5    5    0  503 -0.58508945886E+02  0.18506587397E+02  0.50946384526E+01  0.61756261762E+02  0.47000000000E+01 0. -1.
<mgrwt>
<rscale>  0 0.27500859E+03</rscale>
<asrwt>0</asrwt>
<pdfrwt beam="1">  1        2 0.18491999E-01 0.27500859E+03</pdfrwt>
<pdfrwt beam="2">  1       -2 0.24200367E-01 0.27500859E+03</pdfrwt>
<totfact> 0.45522379E+03</totfact>
</mgrwt>
</event>
<event>
 9    1  0.2098759E-002  0.2732888E+03  0.7818608E-02  0.1099412E+00
         -1   -1    0    0    0  501 -0.00000000000E+00  0.00000000000E+00  0.19902748110E+02  0.19902748110E+02  0.00000000000E+00 0. -1.
          1   -1    0    0  501    0  0.00000000000E+00 -0.00000000000E+00 -0.93814630658E+03  0.93814630658E+03  0.00000000000E+00 0. -1.
         36    2    1    2    0    0 -0.35527136788E-14  0.35527136788E-14 -0.91824355847E+03  0.95804905469E+03  0.27328878228E+03 0.  0.
         25    2    3    3    0    0 -0.13018649365E+02 -0.10117076368E+02 -0.64220112096E+03  0.65443189439E+03  0.12484784406E+03 0.  0.
         25    2    3    3    0    0  0.13018649365E+02  0.10117076368E+02 -0.27604243751E+03  0.30361716030E+03  0.12534796471E+03 0.  0.
          5    1    4    4  502    0  0.18531306440E+02  0.23896876137E+02 -0.55238614130E+03  0.55323323211E+03  0.47000000000E+01 0.  1.
         -5    1    4    4    0  502 -0.31549955805E+02 -0.34013952505E+02 -0.89814979655E+02  0.10119866228E+03  0.47000000000E+01 0.  1.
          5    1    5    5  503    0  0.36459786306E+02 -0.86789394239E+01 -0.26997707401E+03  0.27260658557E+03  0.47000000000E+01 0. -1.
         -5    1    5    5    0  503 -0.23441136941E+02  0.18796015792E+02 -0.60653635046E+01  0.31010574731E+02  0.47000000000E+01 0. -1.
<mgrwt>
<rscale>  0 0.27328878E+03</rscale>
<asrwt>0</asrwt>
<pdfrwt beam="1">  1        1 0.14433018E+00 0.27328878E+03</pdfrwt>
<pdfrwt beam="2">  1       -1 0.30619618E-02 0.27328878E+03</pdfrwt>
<totfact> 0.65164280E+03</totfact>
</mgrwt>
</event>
<event>
 9    1  0.2098759E-002  0.2750756E+03  0.7818608E-02  0.1098409E+00
         -1   -1    0    0    0  501 -0.00000000000E+00  0.00000000000E+00  0.40407612664E+03  0.40407612664E+03  0.00000000000E+00 0. -1.
          1   -1    0    0  501    0  0.00000000000E+00 -0.00000000000E+00 -0.46814570633E+02  0.46814570633E+02  0.00000000000E+00 0. -1.
         36    2    1    2    0    0  0.71054273576E-14  0.35527136788E-14  0.35726155601E+03  0.45089069727E+03  0.27507562867E+03 0.  0.
         25    2    3    3    0    0 -0.15901322628E+02  0.16233949625E+02  0.26831494329E+03  0.29612633569E+03  0.12321324895E+03 0.  0.
         25    2    3    3    0    0  0.15901322628E+02 -0.16233949625E+02  0.88946612721E+02  0.15476436158E+03  0.12459580458E+03 0.  0.
          5    1    4    4  502    0  0.35434797554E+02  0.81254608804E+01  0.22596646562E+03  0.22892046998E+03  0.47000000000E+01 0. -1.
         -5    1    4    4    0  502 -0.51336120182E+02  0.81084887449E+01  0.42348477670E+02  0.67205865712E+02  0.47000000000E+01 0. -1.
          5    1    5    5  503    0  0.19848250693E+02 -0.65896015030E+02  0.76879976440E+02  0.10329016715E+03  0.47000000000E+01 0. -1.
         -5    1    5    5    0  503 -0.39469280642E+01  0.49662065404E+02  0.12066636282E+02  0.51474194433E+02  0.47000000000E+01 0. -1.
<mgrwt>
<rscale>  0 0.27507563E+03</rscale>
<asrwt>0</asrwt>
<pdfrwt beam="1">  1        1 0.72022419E-02 0.27507563E+03</pdfrwt>
<pdfrwt beam="2">  1       -1 0.62165556E-01 0.27507563E+03</pdfrwt>
<totfact> 0.27163946E+03</totfact>
</mgrwt>
</event>
<event>
 9    1  0.2098759E-002  0.2758125E+03  0.7818608E-02  0.1097998E+00
         -1   -1    0    0    0  501 -0.00000000000E+00  0.00000000000E+00  0.17661467504E+03  0.17661467504E+03  0.00000000000E+00 0. -1.
          1   -1    0    0  501    0  0.00000000000E+00 -0.00000000000E+00 -0.10768150462E+03  0.10768150462E+03  0.00000000000E+00 0. -1.
         36    2    1    2    0    0 -0.71054273576E-14 -0.71054273576E-14  0.68933170418E+02  0.28429617965E+03  0.27581250113E+03 0.  0.
         25    2    3    3    0    0 -0.37778738715E+02 -0.51372715473E+02  0.26128808592E+02  0.13651185312E+03  0.11784049563E+03 0.  0.
         25    2    3    3    0    0  0.37778738715E+02  0.51372715473E+02  0.42804361826E+02  0.14778432653E+03  0.12626006805E+03 0.  0.
          5    1    4    4  502    0 -0.38952159368E+02 -0.15853771663E+02  0.68805656449E+02  0.80776984066E+02  0.47000000000E+01 0. -1.
         -5    1    4    4    0  502  0.11734206532E+01 -0.35518943810E+02 -0.42676847857E+02  0.55734869054E+02  0.47000000000E+01 0. -1.
          5    1    5    5  503    0  0.55590909002E+02  0.84691838473E+02  0.41817425890E+02  0.10969887773E+03  0.47000000000E+01 0. -1.
         -5    1    5    5    0  503 -0.17812170287E+02 -0.33319123001E+02  0.98693593598E+00  0.38085448801E+02  0.47000000000E+01 0. -1.
<mgrwt>
<rscale>  0 0.27581250E+03</rscale>
<asrwt>0</asrwt>
<pdfrwt beam="1">  1        1 0.16566385E-01 0.27581250E+03</pdfrwt>
<pdfrwt beam="2">  1       -1 0.27171488E-01 0.27581250E+03</pdfrwt>
<totfact> 0.39319723E+03</totfact>
</mgrwt>
</event>
<event>
 9    1  0.2098759E-002  0.2761549E+03  0.7818608E-02  0.1097808E+00
         -2   -1    0    0    0  501 -0.00000000000E+00  0.00000000000E+00  0.19404944576E+03  0.19404944576E+03  0.00000000000E+00 0.  1.
          2   -1    0    0  501    0  0.00000000000E+00 -0.00000000000E+00 -0.98250099135E+02  0.98250099135E+02  0.00000000000E+00 0.  1.
         36    2    1    2    0    0  0.00000000000E+00  0.00000000000E+00  0.95799346630E+02  0.29229954490E+03  0.27615486440E+03 0.  0.
         25    2    3    3    0    0 -0.35235223672E+02 -0.29904765098E+02  0.68698316316E+01  0.13293377567E+03  0.12445231281E+03 0.  0.
         25    2    3    3    0    0  0.35235223672E+02  0.29904765098E+02  0.88929514998E+02  0.15936576923E+03  0.12390792470E+03 0.  0.
          5    1    4    4  502    0 -0.35849038635E+02  0.34305483728E+02  0.36778019991E+02  0.61941363719E+02  0.47000000000E+01 0. -1.
         -5    1    4    4    0  502  0.61381496302E+00 -0.64210248826E+02 -0.29908188359E+02  0.70992411947E+02  0.47000000000E+01 0. -1.
          5    1    5    5  503    0 -0.16478326373E+02 -0.40773602159E+00 -0.25135661499E+02  0.30423559419E+02  0.47000000000E+01 0. -1.
         -5    1    5    5    0  503  0.51713550045E+02  0.30312501120E+02  0.11406517650E+03  0.12894220981E+03  0.47000000000E+01 0. -1.
<mgrwt>
<rscale>  0 0.27615486E+03</rscale>
<asrwt>0</asrwt>
<pdfrwt beam="1">  1        2 0.15115400E-01 0.27615486E+03</pdfrwt>
<pdfrwt beam="2">  1       -2 0.29853761E-01 0.27615486E+03</pdfrwt>
<totfact> 0.39631674E+03</totfact>
</mgrwt>
</event>
<event>
 9    1  0.2098759E-002  0.2758866E+03  0.7818608E-02  0.1097957E+00
          4   -1    0    0  501    0  0.00000000000E+00  0.00000000000E+00  0.27898007984E+03  0.27898007984E+03  0.00000000000E+00 0.  1.
         -4   -1    0    0    0  501 -0.00000000000E+00 -0.00000000000E+00 -0.68206875595E+02  0.68206875595E+02  0.00000000000E+00 0.  1.
         36    2    1    2    0    0  0.00000000000E+00  0.00000000000E+00  0.21077320424E+03  0.34718695543E+03  0.27588664048E+03 0.  0.
         25    2    3    3    0    0 -0.50890412596E+02 -0.11914403605E+02  0.11827797251E+03  0.18049948975E+03  0.12593093310E+03 0.  0.
         25    2    3    3    0    0  0.50890412596E+02  0.11914403605E+02  0.92495231737E+02  0.16668746569E+03  0.12844281301E+03 0.  0.
          5    1    4    4  502    0 -0.17331261429E+02 -0.31119131052E+02 -0.16984311669E+02  0.39740782365E+02  0.47000000000E+01 0.  1.
         -5    1    4    4    0  502 -0.33559151167E+02  0.19204727447E+02  0.13526228417E+03  0.14075870738E+03  0.47000000000E+01 0.  1.
          5    1    5    5  503    0  0.67814148195E+01  0.20176804195E+01  0.11545568356E+03  0.11576771350E+03  0.47000000000E+01 0. -1.
         -5    1    5    5    0  503  0.44108997777E+02  0.98967231853E+01 -0.22960451828E+02  0.50919752187E+02  0.47000000000E+01 0. -1.
<mgrwt>
<rscale>  0 0.27588664E+03</rscale>
<asrwt>0</asrwt>
<pdfrwt beam="1">  1        4 0.42920012E-01 0.27588664E+03</pdfrwt>
<pdfrwt beam="2">  1       -4 0.10493366E-01 0.27588664E+03</pdfrwt>
<totfact> 0.69316448E+02</totfact>
</mgrwt>
</event>
<event>
 9    1  0.2098759E-002  0.2747012E+03  0.7818608E-02  0.1098619E+00
         -2   -1    0    0    0  501 -0.00000000000E+00  0.00000000000E+00  0.14349834799E+02  0.14349834799E+02  0.00000000000E+00 0. -1.
          2   -1    0    0  501    0  0.00000000000E+00 -0.00000000000E+00 -0.13146624964E+04  0.13146624964E+04  0.00000000000E+00 0. -1.
         36    2    1    2    0    0  0.53290705182E-14 -0.35527136788E-14 -0.13003126616E+04  0.13290123312E+04  0.27470121689E+03 0.  0.
         25    2    3    3    0    0 -0.23127094332E+01  0.25234806329E+02 -0.43082230820E+03  0.44959645719E+03  0.12604352028E+03 0.  0.
         25    2    3    3    0    0  0.23127094332E+01 -0.25234806329E+02 -0.86949035343E+03  0.87941587403E+03  0.12929292601E+03 0.  0.
          5    1    4    4  502    0 -0.22921215699E+01 -0.25767410825E+02 -0.36617920000E+03  0.36712192769E+03  0.47000000000E+01 0. -1.
         -5    1    4    4    0  502 -0.20587863365E-01  0.51002217154E+02 -0.64643108198E+02  0.82474529499E+02  0.47000000000E+01 0. -1.
          5    1    5    5  503    0 -0.46355707582E+02 -0.12895553450E+02 -0.72055423737E+03  0.72217424900E+03  0.47000000000E+01 0. -1.
         -5    1    5    5    0  503  0.48668417015E+02 -0.12339252878E+02 -0.14893611606E+03  0.15724162503E+03  0.47000000000E+01 0. -1.
<mgrwt>
<rscale>  0 0.27470122E+03</rscale>
<asrwt>0</asrwt>
<pdfrwt beam="1">  1        2 0.20225587E+00 0.27470122E+03</pdfrwt>
<pdfrwt beam="2">  1       -2 0.22076658E-02 0.27470122E+03</pdfrwt>
<totfact> 0.11496767E+04</totfact>
</mgrwt>
</event>
<event>
 9    1  0.2098759E-002  0.2756777E+03  0.7818608E-02  0.1098073E+00
         -2   -1    0    0    0  501 -0.00000000000E+00  0.00000000000E+00  0.10337452925E+03  0.10337452925E+03  0.00000000000E+00 0.  1.
          2   -1    0    0  501    0  0.00000000000E+00 -0.00000000000E+00 -0.18379337236E+03  0.18379337236E+03  0.00000000000E+00 0.  1.
         36    2    1    2    0    0  0.00000000000E+00  0.00000000000E+00 -0.80418843110E+02  0.28716790160E+03  0.27567773465E+03 0.  0.
         25    2    3    3    0    0  0.46486191754E+01 -0.56446392715E+02 -0.45764057278E+02  0.14445344748E+03  0.12475834497E+03 0.  0.
         25    2    3    3    0    0 -0.46486191754E+01  0.56446392715E+02 -0.34654785832E+02  0.14271445412E+03  0.12632757547E+03 0.  0.
          5    1    4    4  502    0 -0.34919377879E+02  0.22203767051E+02  0.62090174029E+01  0.42107150459E+02  0.47000000000E+01 0. -1.
         -5    1    4    4    0  502  0.39567997054E+02 -0.78650159766E+02 -0.51973074681E+02  0.10234629702E+03  0.47000000000E+01 0. -1.
          5    1    5    5  503    0  0.56274289352E+02  0.36658553316E+02 -0.39919913529E+02  0.78270905638E+02  0.47000000000E+01 0.  1.
         -5    1    5    5    0  503 -0.60922908527E+02  0.19787839399E+02  0.52651276971E+01  0.64443548484E+02  0.47000000000E+01 0.  1.
<mgrwt>
<rscale>  0 0.27567773E+03</rscale>
<asrwt>0</asrwt>
<pdfrwt beam="1">  1        2 0.28275903E-01 0.27567773E+03</pdfrwt>
<pdfrwt beam="2">  1       -2 0.15903774E-01 0.27567773E+03</pdfrwt>
<totfact> 0.57725849E+03</totfact>
</mgrwt>
</event>
<event>
 9    1  0.2098759E-002  0.2745949E+03  0.7818608E-02  0.1098678E+00
         -3   -1    0    0    0  501 -0.00000000000E+00  0.00000000000E+00  0.42056748431E+03  0.42056748431E+03  0.00000000000E+00 0.  1.
          3   -1    0    0  501    0  0.00000000000E+00 -0.00000000000E+00 -0.44821810025E+02  0.44821810025E+02  0.00000000000E+00 0.  1.
         36    2    1    2    0    0 -0.71054273576E-14  0.00000000000E+00  0.37574567428E+03  0.46538929433E+03  0.27459494449E+03 0.  0.
         25    2    3    3    0    0  0.54263709769E+02 -0.20423798485E+02  0.14966795906E+03  0.20094519967E+03  0.12089993200E+03 0.  0.
         25    2    3    3    0    0 -0.54263709769E+02  0.20423798485E+02  0.22607771522E+03  0.26444409467E+03  0.12432965914E+03 0.  0.
          5    1    4    4  502    0 -0.35558346839E+02  0.25711682929E+01  0.69637031010E+02  0.78373547988E+02  0.47000000000E+01 0.  1.
         -5    1    4    4    0  502  0.89822056607E+02 -0.22994966778E+02  0.80030928052E+02  0.12257165168E+03  0.47000000000E+01 0.  1.
          5    1    5    5  503    0 -0.86748295478E+02 -0.72028787039E+01  0.18739156019E+03  0.20667567603E+03  0.47000000000E+01 0.  1.
         -5    1    5    5    0  503  0.32484585709E+02  0.27626677189E+02  0.38686155029E+02  0.57768418640E+02  0.47000000000E+01 0.  1.
<mgrwt>
<rscale>  0 0.27459494E+03</rscale>
<asrwt>0</asrwt>
<pdfrwt beam="1">  1        3 0.68956634E-02 0.27459494E+03</pdfrwt>
<pdfrwt beam="2">  1       -3 0.64702687E-01 0.27459494E+03</pdfrwt>
<totfact> 0.81191219E+02</totfact>
</mgrwt>
</event>
<event>
 9    1  0.2098759E-002  0.2752882E+03  0.7818608E-02  0.1098291E+00
          3   -1    0    0  501    0  0.00000000000E+00  0.00000000000E+00  0.16087168741E+03  0.16087168741E+03  0.00000000000E+00 0. -1.
         -3   -1    0    0    0  501 -0.00000000000E+00 -0.00000000000E+00 -0.11777020997E+03  0.11777020997E+03  0.00000000000E+00 0. -1.
         36    2    1    2    0    0 -0.71054273576E-14 -0.35527136788E-14  0.43101477442E+02  0.27864189739E+03  0.27528815743E+03 0.  0.
         25    2    3    3    0    0 -0.58627824670E+02  0.10540358583E+02  0.24470610189E+02  0.14073956701E+03  0.12514189536E+03 0.  0.
         25    2    3    3    0    0  0.58627824670E+02 -0.10540358583E+02  0.18630867252E+02  0.13790233038E+03  0.12297000661E+03 0.  0.
          5    1    4    4  502    0 -0.94636423863E+02  0.20016235833E+02  0.32889918034E+02  0.10227677706E+03  0.47000000000E+01 0. -1.
         -5    1    4    4    0  502  0.36008599193E+02 -0.94758772494E+01 -0.84193078443E+01  0.38462789942E+02  0.47000000000E+01 0. -1.
          5    1    5    5  503    0 -0.26398830412E+02 -0.13483600356E+02  0.40046328718E+02  0.50045021426E+02  0.47000000000E+01 0. -1.
         -5    1    5    5    0  503  0.85026655082E+02  0.29432417724E+01 -0.21415461466E+02  0.87857308953E+02  0.47000000000E+01 0. -1.
<mgrwt>
<rscale>  0 0.27528816E+03</rscale>
<asrwt>0</asrwt>
<pdfrwt beam="1">  1        3 0.24749490E-01 0.27528816E+03</pdfrwt>
<pdfrwt beam="2">  1       -3 0.18118494E-01 0.27528816E+03</pdfrwt>
<totfact> 0.10400377E+03</totfact>
</mgrwt>
</event>
<event>
 9    1  0.2098759E-002  0.2711335E+03  0.7818608E-02  0.1100633E+00
         -1   -1    0    0    0  501 -0.00000000000E+00  0.00000000000E+00  0.13425410597E+02  0.13425410597E+02  0.00000000000E+00 0. -1.
          1   -1    0    0  501    0  0.00000000000E+00 -0.00000000000E+00 -0.13689220687E+04  0.13689220687E+04  0.00000000000E+00 0. -1.
         36    2    1    2    0    0  0.00000000000E+00  0.44408920985E-15 -0.13554966581E+04  0.13823474793E+04  0.27113347892E+03 0.  0.
         25    2    3    3    0    0 -0.62820938968E+01 -0.15139618045E+01 -0.39316333758E+03  0.41207109714E+03  0.12322103027E+03 0.  0.
         25    2    3    3    0    0  0.62820938968E+01  0.15139618045E+01 -0.96233332052E+03  0.97027638215E+03  0.12372987187E+03 0.  0.
          5    1    4    4  502    0 -0.28210936395E+02 -0.50677114326E+01 -0.38760799059E+03  0.38869471697E+03  0.47000000000E+01 0. -1.
         -5    1    4    4    0  502  0.21928842499E+02  0.35537496281E+01 -0.55553469875E+01  0.23376380171E+02  0.47000000000E+01 0. -1.
          5    1    5    5  503    0  0.35749426598E+02 -0.39309866541E+02 -0.22603980725E+03  0.23224851253E+03  0.47000000000E+01 0. -1.
         -5    1    5    5    0  503 -0.29467332701E+02  0.40823828345E+02 -0.73629351326E+03  0.73802786962E+03  0.47000000000E+01 0. -1.
<mgrwt>
<rscale>  0 0.27113348E+03</rscale>
<asrwt>0</asrwt>
<pdfrwt beam="1">  1        1 0.21060332E+00 0.27113348E+03</pdfrwt>
<pdfrwt beam="2">  1       -1 0.20654485E-02 0.27113348E+03</pdfrwt>
<totfact> 0.57273985E+03</totfact>
</mgrwt>
</event>
<event>
 9    1  0.2098759E-002  0.2717736E+03  0.7818608E-02  0.1100269E+00
         -1   -1    0    0    0  501 -0.00000000000E+00  0.00000000000E+00  0.67156635094E+02  0.67156635094E+02  0.00000000000E+00 0. -1.
          1   -1    0    0  501    0  0.00000000000E+00 -0.00000000000E+00 -0.27495757584E+03  0.27495757584E+03  0.00000000000E+00 0. -1.
         36    2    1    2    0    0 -0.71054273576E-14  0.00000000000E+00 -0.20780094074E+03  0.34211421093E+03  0.27177362335E+03 0.  0.
         25    2    3    3    0    0  0.33233479283E+02 -0.34319712620E+02 -0.83060867913E+02  0.15862785046E+03  0.12641748433E+03 0.  0.
         25    2    3    3    0    0 -0.33233479283E+02  0.34319712620E+02 -0.12474007283E+03  0.18348636047E+03  0.12579686756E+03 0.  0.
          5    1    4    4  502    0 -0.12960435677E+02 -0.11706197746E+02  0.29602917144E+02  0.34690498152E+02  0.47000000000E+01 0. -1.
         -5    1    4    4    0  502  0.46193914960E+02 -0.22613514874E+02 -0.11266378506E+03  0.12393735231E+03  0.47000000000E+01 0. -1.
          5    1    5    5  503    0  0.13541388021E+02  0.72558312952E+02 -0.69252625957E+02  0.10132173592E+03  0.47000000000E+01 0. -1.
         -5    1    5    5    0  503 -0.46774867304E+02 -0.38238600332E+02 -0.55487446875E+02  0.82164624550E+02  0.47000000000E+01 0. -1.
<mgrwt>
<rscale>  0 0.27177362E+03</rscale>
<asrwt>0</asrwt>
<pdfrwt beam="1">  1        1 0.42301166E-01 0.27177362E+03</pdfrwt>
<pdfrwt beam="2">  1       -1 0.10331790E-01 0.27177362E+03</pdfrwt>
<totfact> 0.56277890E+03</totfact>
</mgrwt>
</event>
<event>
 9    1  0.2098759E-002  0.2748934E+03  0.7818608E-02  0.1098511E+00
         -2   -1    0    0    0  501 -0.00000000000E+00  0.00000000000E+00  0.17596333371E+02  0.17596333371E+02  0.00000000000E+00 0. -1.
          2   -1    0    0  501    0  0.00000000000E+00 -0.00000000000E+00 -0.10736097691E+04  0.10736097691E+04  0.00000000000E+00 0. -1.
         36    2    1    2    0    0  0.00000000000E+00 -0.71054273576E-14 -0.10560134357E+04  0.10912061025E+04  0.27489340048E+03 0.  0.
         25    2    3    3    0    0  0.43182231486E+02 -0.22184675568E+02 -0.45072274061E+03  0.47113742523E+03  0.12830674027E+03 0.  0.
         25    2    3    3    0    0 -0.43182231486E+02  0.22184675568E+02 -0.60529069513E+03  0.62006867726E+03  0.12550487623E+03 0.  0.
          5    1    4    4  502    0  0.56170713988E+02 -0.67567584511E+02 -0.32699733905E+03  0.33862941002E+03  0.47000000000E+01 0. -1.
         -5    1    4    4    0  502 -0.12988482502E+02  0.45382908943E+02 -0.12372540156E+03  0.13250801521E+03  0.47000000000E+01 0. -1.
          5    1    5    5  503    0  0.30692869739E+02 -0.13837250983E+02 -0.63198497344E+02  0.71761144320E+02  0.47000000000E+01 0. -1.
         -5    1    5    5    0  503 -0.73875101225E+02  0.36021926551E+02 -0.54209219779E+03  0.54830753294E+03  0.47000000000E+01 0. -1.
<mgrwt>
<rscale>  0 0.27489340E+03</rscale>
<asrwt>0</asrwt>
<pdfrwt beam="1">  1        2 0.16517069E+00 0.27489340E+03</pdfrwt>
<pdfrwt beam="2">  1       -2 0.27071290E-02 0.27489340E+03</pdfrwt>
<totfact> 0.11670000E+04</totfact>
</mgrwt>
</event>
<event>
 9    1  0.2098759E-002  0.2746611E+03  0.7818608E-02  0.1098641E+00
          2   -1    0    0  501    0  0.00000000000E+00  0.00000000000E+00  0.34542287804E+02  0.34542287804E+02  0.00000000000E+00 0.  1.
         -2   -1    0    0    0  501 -0.00000000000E+00 -0.00000000000E+00 -0.54598811312E+03  0.54598811312E+03  0.00000000000E+00 0.  1.
         36    2    1    2    0    0 -0.35527136788E-14  0.71054273576E-14 -0.51144582532E+03  0.58053040093E+03  0.27466108964E+03 0.  0.
         25    2    3    3    0    0 -0.19285639836E+02 -0.38412351079E+02 -0.28903021487E+03  0.31872966643E+03  0.12728978959E+03 0.  0.
         25    2    3    3    0    0  0.19285639836E+02  0.38412351079E+02 -0.22241561045E+03  0.26180073450E+03  0.13123824212E+03 0.  0.
          5    1    4    4  502    0 -0.26342676882E+02  0.11061613938E+02 -0.39017287047E+01  0.29216594858E+02  0.47000000000E+01 0. -1.
         -5    1    4    4    0  502  0.70570370454E+01 -0.49473965018E+02 -0.28512848616E+03  0.28951307157E+03  0.47000000000E+01 0. -1.
          5    1    5    5  503    0  0.63373349552E+02  0.25216488991E+02 -0.19804633341E+03  0.20951489906E+03  0.47000000000E+01 0. -1.
         -5    1    5    5    0  503 -0.44087709716E+02  0.13195862088E+02 -0.24369277036E+02  0.52285835439E+02  0.47000000000E+01 0. -1.
<mgrwt>
<rscale>  0 0.27466109E+03</rscale>
<asrwt>0</asrwt>
<pdfrwt beam="1">  1        2 0.53141984E-02 0.27466109E+03</pdfrwt>
<pdfrwt beam="2">  1       -2 0.83998167E-01 0.27466109E+03</pdfrwt>
<totfact> 0.18492947E+03</totfact>
</mgrwt>
</event>
<event>
 9    1  0.2098759E-002  0.2751428E+03  0.7818608E-02  0.1098372E+00
          2   -1    0    0  501    0  0.00000000000E+00  0.00000000000E+00  0.43114854927E+03  0.43114854927E+03  0.00000000000E+00 0. -1.
         -2   -1    0    0    0  501 -0.00000000000E+00 -0.00000000000E+00 -0.43896447901E+02  0.43896447901E+02  0.00000000000E+00 0. -1.
         36    2    1    2    0    0  0.00000000000E+00 -0.14210854715E-13  0.38725210137E+03  0.47504499717E+03  0.27514279806E+03 0.  0.
         25    2    3    3    0    0 -0.17019518220E+02 -0.54258780879E+02  0.23435445710E+03  0.27150455290E+03  0.12473584640E+03 0.  0.
         25    2    3    3    0    0  0.17019518220E+02  0.54258780879E+02  0.15289764426E+03  0.20354044427E+03  0.12172651121E+03 0.  0.
          5    1    4    4  502    0 -0.32983854836E+02  0.49587513584E+01  0.50101378174E+01  0.34054594048E+02  0.47000000000E+01 0. -1.
         -5    1    4    4    0  502  0.15964336615E+02 -0.59217532237E+02  0.22934431929E+03  0.23744995885E+03  0.47000000000E+01 0. -1.
          5    1    5    5  503    0  0.37145171474E+01 -0.28364739465E+02  0.10071527604E+03  0.10480464164E+03  0.47000000000E+01 0. -1.
         -5    1    5    5    0  503  0.13305001073E+02  0.82623520343E+02  0.52182368227E+02  0.98735802631E+02  0.47000000000E+01 0. -1.
<mgrwt>
<rscale>  0 0.27514280E+03</rscale>
<asrwt>0</asrwt>
<pdfrwt beam="1">  1        2 0.66330543E-01 0.27514280E+03</pdfrwt>
<pdfrwt beam="2">  1       -2 0.67533000E-02 0.27514280E+03</pdfrwt>
<totfact> 0.89979557E+03</totfact>
</mgrwt>
</event>
<event>
 9    1  0.2098759E-002  0.2748613E+03  0.7818608E-02  0.1098529E+00
         -2   -1    0    0    0  501 -0.00000000000E+00  0.00000000000E+00  0.89597309393E+01  0.89597309393E+01  0.00000000000E+00 0.  1.
          2   -1    0    0  501    0  0.00000000000E+00 -0.00000000000E+00 -0.21080086197E+04  0.21080086197E+04  0.00000000000E+00 0.  1.
         36    2    1    2    0    0 -0.71054273576E-14  0.00000000000E+00 -0.20990488888E+04  0.21169683506E+04  0.27486134723E+03 0.  0.
         25    2    3    3    0    0  0.60939250073E+02 -0.52037377532E+02 -0.12170427938E+04  0.12228554509E+04  0.88095465656E+02 0.  0.
         25    2    3    3    0    0 -0.60939250073E+02  0.52037377532E+02 -0.88200609495E+03  0.89411289970E+03  0.12280734920E+03 0.  0.
          5    1    4    4  502    0  0.63743120945E+02 -0.27549153094E+02 -0.44544203677E+03  0.45084680261E+03  0.47000000000E+01 0. -1.
         -5    1    4    4    0  502 -0.28038708719E+01 -0.24488224438E+02 -0.77160075704E+03  0.77200864832E+03  0.47000000000E+01 0. -1.
          5    1    5    5  503    0 -0.75531765161E+02 -0.11113310187E+02 -0.59162670464E+03  0.59655075296E+03  0.47000000000E+01 0.  1.
         -5    1    5    5    0  503  0.14592515088E+02  0.63150687719E+02 -0.29037939031E+03  0.29756214674E+03  0.47000000000E+01 0.  1.
<mgrwt>
<rscale>  0 0.27486135E+03</rscale>
<asrwt>0</asrwt>
<pdfrwt beam="1">  1        2 0.32430953E+00 0.27486135E+03</pdfrwt>
<pdfrwt beam="2">  1       -2 0.13784180E-02 0.27486135E+03</pdfrwt>
<totfact> 0.86993479E+03</totfact>
</mgrwt>
</event>
<event>
 9    1  0.2098759E-002  0.2749672E+03  0.7818608E-02  0.1098470E+00
         -1   -1    0    0    0  501 -0.00000000000E+00  0.00000000000E+00  0.16171609274E+02  0.16171609274E+02  0.00000000000E+00 0.  1.
          1   -1    0    0  501    0  0.00000000000E+00 -0.00000000000E+00 -0.11688225719E+04  0.11688225719E+04  0.00000000000E+00 0.  1.
         36    2    1    2    0    0  0.00000000000E+00 -0.71054273576E-14 -0.11526509626E+04  0.11849941812E+04  0.27496721217E+03 0.  0.
         25    2    3    3    0    0 -0.36585997232E+02  0.26482767087E+02 -0.72714618812E+03  0.73982003272E+03  0.12865546926E+03 0.  0.
         25    2    3    3    0    0  0.36585997232E+02 -0.26482767087E+02 -0.42550477448E+03  0.44517414843E+03  0.12282441605E+03 0.  0.
          5    1    4    4  502    0 -0.39631605782E+02  0.62512510647E+02 -0.23732933965E+03  0.24864791096E+03  0.47000000000E+01 0. -1.
         -5    1    4    4    0  502  0.30456085492E+01 -0.36029743560E+02 -0.48981684847E+03  0.49117212176E+03  0.47000000000E+01 0. -1.
          5    1    5    5  503    0 -0.11488729706E+02 -0.66693596993E+02 -0.23237896843E+03  0.24207870984E+03  0.47000000000E+01 0.  1.
         -5    1    5    5    0  503  0.48074726938E+02  0.40210829906E+02 -0.19312580605E+03  0.20309543859E+03  0.47000000000E+01 0.  1.
<mgrwt>
<rscale>  0 0.27496721E+03</rscale>
<asrwt>0</asrwt>
<pdfrwt beam="1">  1        1 0.17981891E+00 0.27496721E+03</pdfrwt>
<pdfrwt beam="2">  1       -1 0.24879392E-02 0.27496721E+03</pdfrwt>
<totfact> 0.59896324E+03</totfact>
</mgrwt>
</event>
<event>
 9    1  0.2098759E-002  0.2772681E+03  0.7818608E-02  0.1097190E+00
          2   -1    0    0  501    0  0.00000000000E+00  0.00000000000E+00  0.17888287593E+04  0.17888287593E+04  0.00000000000E+00 0.  1.
         -2   -1    0    0    0  501 -0.00000000000E+00 -0.00000000000E+00 -0.10744121771E+02  0.10744121771E+02  0.00000000000E+00 0.  1.
         36    2    1    2    0    0  0.00000000000E+00  0.00000000000E+00  0.17780846375E+04  0.17995728810E+04  0.27726805815E+03 0.  0.
         25    2    3    3    0    0  0.33080915429E+02  0.46881686396E+02  0.10209893597E+04  0.10302831977E+04  0.12558644546E+03 0.  0.
         25    2    3    3    0    0 -0.33080915429E+02 -0.46881686396E+02  0.75709527776E+03  0.76928968334E+03  0.12377850298E+03 0.  0.
          5    1    4    4  502    0  0.30146918210E+02 -0.38898730486E+02  0.28073274521E+03  0.28505247262E+03  0.47000000000E+01 0. -1.
         -5    1    4    4    0  502  0.29339972193E+01  0.85780416882E+02  0.74025661451E+03  0.74523072507E+03  0.47000000000E+01 0. -1.
          5    1    5    5  503    0 -0.33161152921E+02 -0.85294973011E+02  0.41407623762E+03  0.42409446476E+03  0.47000000000E+01 0. -1.
         -5    1    5    5    0  503  0.80237492117E-01  0.38413286615E+02  0.34301904014E+03  0.34519521858E+03  0.47000000000E+01 0. -1.
<mgrwt>
<rscale>  0 0.27726806E+03</rscale>
<asrwt>0</asrwt>
<pdfrwt beam="1">  1        2 0.27520419E+00 0.27726806E+03</pdfrwt>
<pdfrwt beam="2">  1       -2 0.16529432E-02 0.27726806E+03</pdfrwt>
<totfact> 0.98173978E+03</totfact>
</mgrwt>
</event>
<event>
 9    1  0.2098759E-002  0.2752619E+03  0.7818608E-02  0.1098305E+00
         -3   -1    0    0    0  501 -0.00000000000E+00  0.00000000000E+00  0.71222176788E+03  0.71222176788E+03  0.00000000000E+00 0.  1.
          3   -1    0    0  501    0  0.00000000000E+00 -0.00000000000E+00 -0.26596031639E+02  0.26596031639E+02  0.00000000000E+00 0.  1.
         36    2    1    2    0    0  0.00000000000E+00  0.00000000000E+00  0.68562573624E+03  0.73881779952E+03  0.27526185840E+03 0.  0.
         25    2    3    3    0    0  0.20312231523E+02  0.44356972101E+02  0.35960817948E+03  0.38598018506E+03  0.13146304721E+03 0.  0.
         25    2    3    3    0    0 -0.20312231523E+02 -0.44356972101E+02  0.32601755676E+03  0.35283761446E+03  0.12580463879E+03 0.  0.
          5    1    4    4  502    0 -0.44085533815E+01  0.17082833367E+02  0.34595910677E+03  0.34644054627E+03  0.47000000000E+01 0. -1.
         -5    1    4    4    0  502  0.24720784905E+02  0.27274138735E+02  0.13649072713E+02  0.39539638794E+02  0.47000000000E+01 0. -1.
          5    1    5    5  503    0 -0.50637943158E+02 -0.68231075367E+02  0.27972682953E+03  0.29238479798E+03  0.47000000000E+01 0.  1.
         -5    1    5    5    0  503  0.30325711635E+02  0.23874103266E+02  0.46290727229E+02  0.60452816480E+02  0.47000000000E+01 0.  1.
<mgrwt>
<rscale>  0 0.27526186E+03</rscale>
<asrwt>0</asrwt>
<pdfrwt beam="1">  1        3 0.40916977E-02 0.27526186E+03</pdfrwt>
<pdfrwt beam="2">  1       -3 0.10957257E+00 0.27526186E+03</pdfrwt>
<totfact> 0.58204256E+02</totfact>
</mgrwt>
</event>
<event>
 9    1  0.2098759E-002  0.2742927E+03  0.7818608E-02  0.1098848E+00
          1   -1    0    0  501    0  0.00000000000E+00  0.00000000000E+00  0.30158566468E+03  0.30158566468E+03  0.00000000000E+00 0.  1.
         -1   -1    0    0    0  501 -0.00000000000E+00 -0.00000000000E+00 -0.62367439987E+02  0.62367439987E+02  0.00000000000E+00 0.  1.
         36    2    1    2    0    0  0.00000000000E+00 -0.71054273576E-14  0.23921822469E+03  0.36395310466E+03  0.27429273299E+03 0.  0.
         25    2    3    3    0    0 -0.81257708917E+01  0.56814540649E+02  0.17216326096E+03  0.22040692082E+03  0.12508038271E+03 0.  0.
         25    2    3    3    0    0  0.81257708917E+01 -0.56814540649E+02  0.67054963728E+02  0.14354618384E+03  0.11320432215E+03 0.  0.
          5    1    4    4  502    0  0.67254352747E+01  0.95441343073E+02  0.12503195197E+03  0.15750987417E+03  0.47000000000E+01 0.  1.
         -5    1    4    4    0  502 -0.14851206166E+02 -0.38626802424E+02  0.47131308990E+02  0.62897046650E+02  0.47000000000E+01 0.  1.
          5    1    5    5  503    0 -0.33061490066E+02 -0.50096500462E+01 -0.15897903790E+02  0.37322808897E+02  0.47000000000E+01 0.  1.
         -5    1    5    5    0  503  0.41187260958E+02 -0.51804890603E+02  0.82952867518E+02  0.10622337495E+03  0.47000000000E+01 0.  1.
<mgrwt>
<rscale>  0 0.27429273E+03</rscale>
<asrwt>0</asrwt>
<pdfrwt beam="1">  1        1 0.46397793E-01 0.27429273E+03</pdfrwt>
<pdfrwt beam="2">  1       -1 0.95949910E-02 0.27429273E+03</pdfrwt>
<totfact> 0.56193697E+03</totfact>
</mgrwt>
</event>
<event>
 9    1  0.2098759E-002  0.2804605E+03  0.7818608E-02  0.1095438E+00
          2   -1    0    0  501    0  0.00000000000E+00  0.00000000000E+00  0.99668803768E+03  0.99668803768E+03  0.00000000000E+00 0. -1.
         -2   -1    0    0    0  501 -0.00000000000E+00 -0.00000000000E+00 -0.19729869645E+02  0.19729869645E+02  0.00000000000E+00 0. -1.
         36    2    1    2    0    0  0.00000000000E+00  0.00000000000E+00  0.97695816803E+03  0.10164179073E+04  0.28046051458E+03 0.  0.
         25    2    3    3    0    0 -0.25964486809E+02 -0.12942869274E+02  0.66880843053E+03  0.68189349399E+03  0.12973953889E+03 0.  0.
         25    2    3    3    0    0  0.25964486809E+02  0.12942869274E+02  0.30814973750E+03  0.33452441334E+03  0.12691985643E+03 0.  0.
          5    1    4    4  502    0 -0.91398143396E+00  0.49354163303E+02  0.13426165954E+03  0.14312565116E+03  0.47000000000E+01 0. -1.
         -5    1    4    4    0  502 -0.25050505375E+02 -0.62297032577E+02  0.53454677099E+03  0.53876784283E+03  0.47000000000E+01 0. -1.
          5    1    5    5  503    0  0.62779583586E+02  0.46192454937E+02  0.21734908362E+03  0.23094963338E+03  0.47000000000E+01 0.  1.
         -5    1    5    5    0  503 -0.36815096777E+02 -0.33249585663E+02  0.90800653885E+02  0.10357477996E+03  0.47000000000E+01 0.  1.
<mgrwt>
<rscale>  0 0.28046051E+03</rscale>
<asrwt>0</asrwt>
<pdfrwt beam="1">  1        2 0.15333658E+00 0.28046051E+03</pdfrwt>
<pdfrwt beam="2">  1       -2 0.30353653E-02 0.28046051E+03</pdfrwt>
<totfact> 0.10961351E+04</totfact>
</mgrwt>
</event>
<event>
 9    1  0.2098759E-002  0.2734959E+03  0.7818608E-02  0.1099295E+00
         -2   -1    0    0    0  501 -0.00000000000E+00  0.00000000000E+00  0.20163506968E+02  0.20163506968E+02  0.00000000000E+00 0.  1.
          2   -1    0    0  501    0  0.00000000000E+00 -0.00000000000E+00 -0.92741830558E+03  0.92741830558E+03  0.00000000000E+00 0.  1.
         36    2    1    2    0    0  0.00000000000E+00 -0.10658141036E-13 -0.90725479861E+03  0.94758181255E+03  0.27349592660E+03 0.  0.
         25    2    3    3    0    0  0.16130490639E+02 -0.29290196680E+02 -0.31670082434E+03  0.34253431593E+03  0.12614371606E+03 0.  0.
         25    2    3    3    0    0 -0.16130490639E+02  0.29290196680E+02 -0.59055397427E+03  0.60504749662E+03  0.12731994457E+03 0.  0.
          5    1    4    4  502    0 -0.26060931923E+02 -0.24799708491E+02 -0.28983040640E+03  0.29209236927E+03  0.47000000000E+01 0.  1.
         -5    1    4    4    0  502  0.42191422561E+02 -0.44904881892E+01 -0.26870417936E+02  0.50441946651E+02  0.47000000000E+01 0.  1.
          5    1    5    5  503    0 -0.38764273829E+02 -0.41610368675E+02 -0.25495470457E+03  0.26126247930E+03  0.47000000000E+01 0.  1.
         -5    1    5    5    0  503  0.22633783190E+02  0.70900565356E+02 -0.33559926970E+03  0.34378501732E+03  0.47000000000E+01 0.  1.
<mgrwt>
<rscale>  0 0.27349593E+03</rscale>
<asrwt>0</asrwt>
<pdfrwt beam="1">  1        2 0.14267970E+00 0.27349593E+03</pdfrwt>
<pdfrwt beam="2">  1       -2 0.31020790E-02 0.27349593E+03</pdfrwt>
<totfact> 0.11714161E+04</totfact>
</mgrwt>
</event>
<event>
 9    1  0.2098759E-002  0.2751602E+03  0.7818608E-02  0.1098362E+00
         -1   -1    0    0    0  501 -0.00000000000E+00  0.00000000000E+00  0.68169566206E+02  0.68169566206E+02  0.00000000000E+00 0. -1.
          1   -1    0    0  501    0  0.00000000000E+00 -0.00000000000E+00 -0.27766478129E+03  0.27766478129E+03  0.00000000000E+00 0. -1.
         36    2    1    2    0    0 -0.88817841970E-15  0.00000000000E+00 -0.20949521509E+03  0.34583434750E+03  0.27516022744E+03 0.  0.
         25    2    3    3    0    0  0.54843065161E+01 -0.51504280113E+01 -0.34297580580E+02  0.13166457232E+03  0.12689614275E+03 0.  0.
         25    2    3    3    0    0 -0.54843065161E+01  0.51504280113E+01 -0.17519763451E+03  0.21416977518E+03  0.12295477597E+03 0.  0.
          5    1    4    4  502    0  0.11990902653E+02 -0.63149779073E+02 -0.34519604404E+02  0.73112033426E+02  0.47000000000E+01 0.  1.
         -5    1    4    4    0  502 -0.65065961366E+01  0.57999351062E+02  0.22202382471E+00  0.58552538899E+02  0.47000000000E+01 0.  1.
          5    1    5    5  503    0 -0.44192579401E+02  0.38608757144E+02 -0.14004521854E+03  0.15191567871E+03  0.47000000000E+01 0. -1.
         -5    1    5    5    0  503  0.38708272885E+02 -0.33458329133E+02 -0.35152415966E+02  0.62254096462E+02  0.47000000000E+01 0. -1.
<mgrwt>
<rscale>  0 0.27516023E+03</rscale>
<asrwt>0</asrwt>
<pdfrwt beam="1">  1        1 0.42717659E-01 0.27516023E+03</pdfrwt>
<pdfrwt beam="2">  1       -1 0.10487626E-01 0.27516023E+03</pdfrwt>
<totfact> 0.54338450E+03</totfact>
</mgrwt>
</event>
<event>
 9    1  0.2098759E-002  0.2732323E+03  0.7818608E-02  0.1099444E+00
          2   -1    0    0  501    0  0.00000000000E+00  0.00000000000E+00  0.36999704363E+03  0.36999704363E+03  0.00000000000E+00 0. -1.
         -2   -1    0    0    0  501 -0.00000000000E+00 -0.00000000000E+00 -0.50443578675E+02  0.50443578675E+02  0.00000000000E+00 0. -1.
         36    2    1    2    0    0  0.00000000000E+00  0.00000000000E+00  0.31955346495E+03  0.42044062230E+03  0.27323231858E+03 0.  0.
         25    2    3    3    0    0 -0.50472328213E+02 -0.45373898669E+01  0.21018192902E+03  0.24790214697E+03  0.12128885918E+03 0.  0.
         25    2    3    3    0    0  0.50472328213E+02  0.45373898669E+01  0.10937153593E+03  0.17253847534E+03  0.12344775728E+03 0.  0.
          5    1    4    4  502    0  0.28974750314E+02  0.12147801515E+02  0.12954385897E+03  0.13338218260E+03  0.47000000000E+01 0. -1.
         -5    1    4    4    0  502 -0.79447078526E+02 -0.16685191382E+02  0.80638070049E+02  0.11451996437E+03  0.47000000000E+01 0. -1.
          5    1    5    5  503    0  0.87093230038E+02  0.11524430135E+02  0.47060065351E+02  0.99773658644E+02  0.47000000000E+01 0. -1.
         -5    1    5    5    0  503 -0.36620901825E+02 -0.69870402679E+01  0.62311470580E+02  0.72764816691E+02  0.47000000000E+01 0. -1.
<mgrwt>
<rscale>  0 0.27323232E+03</rscale>
<asrwt>0</asrwt>
<pdfrwt beam="1">  1        2 0.56922620E-01 0.27323232E+03</pdfrwt>
<pdfrwt beam="2">  1       -2 0.77605508E-02 0.27323232E+03</pdfrwt>
<totfact> 0.85615233E+03</totfact>
</mgrwt>
</event>
<event>
 9    1  0.2098759E-002  0.2753118E+03  0.7818608E-02  0.1098277E+00
         -2   -1    0    0    0  501 -0.00000000000E+00  0.00000000000E+00  0.45356959025E+02  0.45356959025E+02  0.00000000000E+00 0.  1.
          2   -1    0    0  501    0  0.00000000000E+00 -0.00000000000E+00 -0.41777827553E+03  0.41777827553E+03  0.00000000000E+00 0.  1.
         36    2    1    2    0    0  0.00000000000E+00  0.00000000000E+00 -0.37242131651E+03  0.46313523456E+03  0.27531183865E+03 0.  0.
         25    2    3    3    0    0 -0.22645233849E+02  0.16027694489E+02 -0.27563145073E+03  0.30381844371E+03  0.12475278154E+03 0.  0.
         25    2    3    3    0    0  0.22645233849E+02 -0.16027694489E+02 -0.96789865775E+02  0.15931679085E+03  0.12346606061E+03 0.  0.
          5    1    4    4  502    0  0.23526664837E+02 -0.25330146864E+02 -0.21203585915E+03  0.21488698394E+03  0.47000000000E+01 0. -1.
         -5    1    4    4    0  502 -0.46171898686E+02  0.41357841353E+02 -0.63595591577E+02  0.88931459774E+02  0.47000000000E+01 0. -1.
          5    1    5    5  503    0  0.63244241660E+02  0.25400749416E+02 -0.54081347968E+02  0.87131592273E+02  0.47000000000E+01 0.  1.
         -5    1    5    5    0  503 -0.40599007811E+02 -0.41428443905E+02 -0.42708517807E+02  0.72185198572E+02  0.47000000000E+01 0.  1.
<mgrwt>
<rscale>  0 0.27531184E+03</rscale>
<asrwt>0</asrwt>
<pdfrwt beam="1">  1        2 0.64273581E-01 0.27531184E+03</pdfrwt>
<pdfrwt beam="2">  1       -2 0.69779937E-02 0.27531184E+03</pdfrwt>
<totfact> 0.88537471E+03</totfact>
</mgrwt>
</event>
<event>
 8    1  0.2098759E-002  0.2568535E+03  0.7818608E-02  0.1109049E+00
          4   -1    0    0  501    0  0.00000000000E+00  0.00000000000E+00  0.10946144291E+03  0.10946144291E+03  0.00000000000E+00 0.  1.
         -4   -1    0    0    0  501 -0.00000000000E+00 -0.00000000000E+00 -0.15067800742E+03  0.15067800742E+03  0.00000000000E+00 0.  1.
         25    2    1    2    0    0  0.29291717064E+02  0.77673404661E+01 -0.42798250892E+01  0.12988173135E+03  0.12622444679E+03 0.  0.
         25    2    1    2    0    0 -0.29291717064E+02 -0.77673404661E+01 -0.36936739422E+02  0.13025771897E+03  0.12117926542E+03 0.  0.
          5    1    3    3  502    0 -0.48306056219E+02  0.17123414052E+02 -0.33513656335E+01  0.51575265660E+02  0.47000000000E+01 0. -1.
         -5    1    3    3    0  502  0.77597773283E+02 -0.93560735861E+01 -0.92845945571E+00  0.78306465687E+02  0.47000000000E+01 0. -1.
          5    1    4    4  503    0  0.18488603084E+02  0.24474406621E+02 -0.60354195222E+02  0.67864157730E+02  0.47000000000E+01 0.  1.
         -5    1    4    4    0  503 -0.47780320148E+02 -0.32241747087E+02  0.23417455801E+02  0.62393561245E+02  0.47000000000E+01 0.  1.
<mgrwt>
<rscale>  0 0.25685352E+03</rscale>
<asrwt>0</asrwt>
<pdfrwt beam="1">  1        4 0.16840222E-01 0.25685352E+03</pdfrwt>
<pdfrwt beam="2">  1       -4 0.23181232E-01 0.25685352E+03</pdfrwt>
<totfact> 0.98329668E+02</totfact>
</mgrwt>
</event>
<event>
 9    1  0.2098759E-002  0.2746100E+03  0.7818608E-02  0.1098670E+00
         -2   -1    0    0    0  501 -0.00000000000E+00  0.00000000000E+00  0.12547405404E+03  0.12547405404E+03  0.00000000000E+00 0. -1.
          2   -1    0    0  501    0  0.00000000000E+00 -0.00000000000E+00 -0.15025147780E+03  0.15025147780E+03  0.00000000000E+00 0. -1.
         36    2    1    2    0    0  0.00000000000E+00 -0.71054273576E-14 -0.24777423758E+02  0.27572553184E+03  0.27460999287E+03 0.  0.
         25    2    3    3    0    0  0.38883787555E+02  0.37312557550E+02 -0.93808836906E+01  0.13698591766E+03  0.12559046450E+03 0.  0.
         25    2    3    3    0    0 -0.38883787555E+02 -0.37312557550E+02 -0.15396540068E+02  0.13873961418E+03  0.12691513390E+03 0.  0.
          5    1    4    4  502    0  0.38246926256E+02 -0.42097546946E+02 -0.22538128911E+01  0.57115676478E+02  0.47000000000E+01 0.  1.
         -5    1    4    4    0  502  0.63686129857E+00  0.79410104497E+02 -0.71270707995E+01  0.79870241183E+02  0.47000000000E+01 0.  1.
          5    1    5    5  503    0 -0.56575785844E+01 -0.81606454461E+02 -0.14187804398E+02  0.83156511463E+02  0.47000000000E+01 0. -1.
         -5    1    5    5    0  503 -0.33226208970E+02  0.44293896910E+02 -0.12087356702E+01  0.55583102720E+02  0.47000000000E+01 0. -1.
<mgrwt>
<rscale>  0 0.27460999E+03</rscale>
<asrwt>0</asrwt>
<pdfrwt beam="1">  1        2 0.23115612E-01 0.27460999E+03</pdfrwt>
<pdfrwt beam="2">  1       -2 0.19303701E-01 0.27460999E+03</pdfrwt>
<totfact> 0.52162217E+03</totfact>
</mgrwt>
</event>
<event>
 9    1  0.2098759E-002  0.2749768E+03  0.7818608E-02  0.1098465E+00
         -2   -1    0    0    0  501 -0.00000000000E+00  0.00000000000E+00  0.83870900723E+01  0.83870900723E+01  0.00000000000E+00 0.  1.
          2   -1    0    0  501    0  0.00000000000E+00 -0.00000000000E+00 -0.22538283222E+04  0.22538283222E+04  0.00000000000E+00 0.  1.
         36    2    1    2    0    0  0.00000000000E+00 -0.35527136788E-14 -0.22454412322E+04  0.22622154123E+04  0.27497680736E+03 0.  0.
         25    2    3    3    0    0  0.73469136288E+02  0.20805985577E+02 -0.71587010563E+03  0.72548385624E+03  0.89589142759E+02 0.  0.
         25    2    3    3    0    0 -0.73469136288E+02 -0.20805985577E+02 -0.15295711265E+04  0.15367315561E+04  0.12698598853E+03 0.  0.
          5    1    4    4  502    0  0.44432375482E+02  0.14837588603E+02 -0.12069086272E+03  0.12954830902E+03  0.47000000000E+01 0. -1.
         -5    1    4    4    0  502  0.29036760806E+02  0.59683969743E+01 -0.59517924291E+03  0.59593554721E+03  0.47000000000E+01 0. -1.
          5    1    5    5  503    0 -0.80214853855E+02  0.55154876149E+01 -0.47354833638E+03  0.48034879022E+03  0.47000000000E+01 0. -1.
         -5    1    5    5    0  503  0.67457175675E+01 -0.26321473192E+02 -0.10560227902E+04  0.10563827659E+04  0.47000000000E+01 0. -1.
<mgrwt>
<rscale>  0 0.27497681E+03</rscale>
<asrwt>0</asrwt>
<pdfrwt beam="1">  1        2 0.34674234E+00 0.27497681E+03</pdfrwt>
<pdfrwt beam="2">  1       -2 0.12903233E-02 0.27497681E+03</pdfrwt>
<totfact> 0.80145990E+03</totfact>
</mgrwt>
</event>
<event>
 9    1  0.2098759E-002  0.2749165E+03  0.7818608E-02  0.1098498E+00
          2   -1    0    0  501    0  0.00000000000E+00  0.00000000000E+00  0.44070998507E+02  0.44070998507E+02  0.00000000000E+00 0.  1.
         -2   -1    0    0    0  501 -0.00000000000E+00 -0.00000000000E+00 -0.42873493281E+03  0.42873493281E+03  0.00000000000E+00 0.  1.
         36    2    1    2    0    0  0.00000000000E+00  0.00000000000E+00 -0.38466393431E+03  0.47280593132E+03  0.27491654431E+03 0.  0.
         25    2    3    3    0    0 -0.22240278629E+02  0.66402996610E+02 -0.20783955627E+03  0.25195665166E+03  0.12401969688E+03 0.  0.
         25    2    3    3    0    0  0.22240278629E+02 -0.66402996610E+02 -0.17682437804E+03  0.22084927966E+03  0.11226555886E+03 0.  0.
          5    1    4    4  502    0 -0.58191052634E+02  0.38524789063E+02 -0.45849234285E+02  0.83633726830E+02  0.47000000000E+01 0. -1.
         -5    1    4    4    0  502  0.35950774005E+02  0.27878207547E+02 -0.16199032198E+03  0.16832292483E+03  0.47000000000E+01 0. -1.
          5    1    5    5  503    0  0.10256145805E+02  0.30746368263E+02 -0.60070058428E+02  0.68418050306E+02  0.47000000000E+01 0. -1.
         -5    1    5    5    0  503  0.11984132824E+02 -0.97149364873E+02 -0.11675431961E+03  0.15243122936E+03  0.47000000000E+01 0. -1.
<mgrwt>
<rscale>  0 0.27491654E+03</rscale>
<asrwt>0</asrwt>
<pdfrwt beam="1">  1        2 0.67801538E-02 0.27491654E+03</pdfrwt>
<pdfrwt beam="2">  1       -2 0.65959219E-01 0.27491654E+03</pdfrwt>
<totfact> 0.22752446E+03</totfact>
</mgrwt>
</event>
<event>
 9    1  0.2098759E-002  0.2771446E+03  0.7818608E-02  0.1097259E+00
         -2   -1    0    0    0  501 -0.00000000000E+00  0.00000000000E+00  0.31281477690E+02  0.31281477690E+02  0.00000000000E+00 0.  1.
          2   -1    0    0  501    0  0.00000000000E+00 -0.00000000000E+00 -0.61385492232E+03  0.61385492232E+03  0.00000000000E+00 0.  1.
         36    2    1    2    0    0 -0.71054273576E-14  0.00000000000E+00 -0.58257344463E+03  0.64513640001E+03  0.27714464857E+03 0.  0.
         25    2    3    3    0    0  0.52274317724E+01 -0.42948610305E+01 -0.15700972630E+03  0.20068789733E+03  0.12481108167E+03 0.  0.
         25    2    3    3    0    0 -0.52274317724E+01  0.42948610305E+01 -0.42556371833E+03  0.44444850268E+03  0.12800086445E+03 0.  0.
          5    1    4    4  502    0  0.35381049536E+02 -0.30809377010E+02 -0.99709415082E+01  0.48192800838E+02  0.47000000000E+01 0.  1.
         -5    1    4    4    0  502 -0.30153617763E+02  0.26514515980E+02 -0.14703878479E+03  0.15249509649E+03  0.47000000000E+01 0.  1.
          5    1    5    5  503    0  0.60859635131E+02  0.26157657421E+01 -0.22912279904E+03  0.23712883514E+03  0.47000000000E+01 0.  1.
         -5    1    5    5    0  503 -0.66087066904E+02  0.16790952884E+01 -0.19644091929E+03  0.20731966753E+03  0.47000000000E+01 0.  1.
<mgrwt>
<rscale>  0 0.27714465E+03</rscale>
<asrwt>0</asrwt>
<pdfrwt beam="1">  1        2 0.94439219E-01 0.27714465E+03</pdfrwt>
<pdfrwt beam="2">  1       -2 0.48125350E-02 0.27714465E+03</pdfrwt>
<totfact> 0.10151777E+04</totfact>
</mgrwt>
</event>
<event>
 9    1  0.2098759E-002  0.2747712E+03  0.7818608E-02  0.1098580E+00
         -1   -1    0    0    0  501 -0.00000000000E+00  0.00000000000E+00  0.84879924693E+02  0.84879924693E+02  0.00000000000E+00 0. -1.
          1   -1    0    0  501    0  0.00000000000E+00 -0.00000000000E+00 -0.22237059497E+03  0.22237059497E+03  0.00000000000E+00 0. -1.
         36    2    1    2    0    0 -0.17763568394E-14 -0.71054273576E-14 -0.13749067027E+03  0.30725051966E+03  0.27477117283E+03 0.  0.
         25    2    3    3    0    0  0.85333787779E+01 -0.29131934834E+02 -0.10526834033E+02  0.12874319617E+03  0.12466959591E+03 0.  0.
         25    2    3    3    0    0 -0.85333787779E+01  0.29131934834E+02 -0.12696383624E+03  0.17850732349E+03  0.12175204576E+03 0.  0.
          5    1    4    4  502    0  0.89570660219E+01 -0.78280522517E+02 -0.70879129019E+01  0.79248960539E+02  0.47000000000E+01 0.  1.
         -5    1    4    4    0  502 -0.42368724398E+00  0.49148587683E+02 -0.34389211310E+01  0.49494235631E+02  0.47000000000E+01 0.  1.
          5    1    5    5  503    0  0.12405989468E+02  0.18618086674E+02 -0.14610898035E+03  0.14788666561E+03  0.47000000000E+01 0. -1.
         -5    1    5    5    0  503 -0.20939368246E+02  0.10513848160E+02  0.19145144114E+02  0.30620657877E+02  0.47000000000E+01 0. -1.
<mgrwt>
<rscale>  0 0.27477117E+03</rscale>
<asrwt>0</asrwt>
<pdfrwt beam="1">  1        1 0.34210860E-01 0.27477117E+03</pdfrwt>
<pdfrwt beam="2">  1       -1 0.13058450E-01 0.27477117E+03</pdfrwt>
<totfact> 0.51009540E+03</totfact>
</mgrwt>
</event>
<event>
 9    1  0.2098759E-002  0.2753236E+03  0.7818608E-02  0.1098271E+00
         -1   -1    0    0    0  501 -0.00000000000E+00  0.00000000000E+00  0.62258476119E+02  0.62258476119E+02  0.00000000000E+00 0.  1.
          1   -1    0    0  501    0  0.00000000000E+00 -0.00000000000E+00 -0.30438869018E+03  0.30438869018E+03  0.00000000000E+00 0.  1.
         36    2    1    2    0    0  0.35527136788E-14  0.00000000000E+00 -0.24213021406E+03  0.36664716630E+03  0.27532363501E+03 0.  0.
         25    2    3    3    0    0 -0.30519189939E+02  0.97202997634E+01 -0.64525546470E+02  0.14418844183E+03  0.12490338437E+03 0.  0.
         25    2    3    3    0    0  0.30519189939E+02 -0.97202997634E+01 -0.17760466759E+03  0.22245872447E+03  0.13007136872E+03 0.  0.
          5    1    4    4  502    0 -0.12710981753E+02  0.43124845097E+02  0.21521056926E+02  0.50065629058E+02  0.47000000000E+01 0.  1.
         -5    1    4    4    0  502 -0.17808208186E+02 -0.33404545333E+02 -0.86046603396E+02  0.94122812770E+02  0.47000000000E+01 0.  1.
          5    1    5    5  503    0 -0.80335435066E+01 -0.63988013437E+02 -0.10910153393E+03  0.12682365075E+03  0.47000000000E+01 0.  1.
         -5    1    5    5    0  503  0.38552733446E+02  0.54267713673E+02 -0.68503133658E+02  0.95635073714E+02  0.47000000000E+01 0.  1.
<mgrwt>
<rscale>  0 0.27532364E+03</rscale>
<asrwt>0</asrwt>
<pdfrwt beam="1">  1        1 0.46829028E-01 0.27532364E+03</pdfrwt>
<pdfrwt beam="2">  1       -1 0.95782274E-02 0.27532364E+03</pdfrwt>
<totfact> 0.55700241E+03</totfact>
</mgrwt>
</event>
<event>
 9    1  0.2098759E-002  0.2751357E+03  0.7818608E-02  0.1098376E+00
          2   -1    0    0  501    0  0.00000000000E+00  0.00000000000E+00  0.22575745927E+03  0.22575745927E+03  0.00000000000E+00 0. -1.
         -2   -1    0    0    0  501 -0.00000000000E+00 -0.00000000000E+00 -0.83828507237E+02  0.83828507237E+02  0.00000000000E+00 0. -1.
         36    2    1    2    0    0  0.71054273576E-14  0.00000000000E+00  0.14192895203E+03  0.30958596650E+03  0.27513568150E+03 0.  0.
         25    2    3    3    0    0  0.55474638036E+02  0.13467809669E+02  0.85644804149E+02  0.16211270257E+03  0.12524647099E+03 0.  0.
         25    2    3    3    0    0 -0.55474638036E+02 -0.13467809669E+02  0.56284147880E+02  0.14747326393E+03  0.12378061605E+03 0.  0.
          5    1    4    4  502    0  0.25579463519E+02  0.24020455844E+02  0.11396881465E+03  0.11934099030E+03  0.47000000000E+01 0. -1.
         -5    1    4    4    0  502  0.29895174516E+02 -0.10552646175E+02 -0.28324010497E+02  0.42771712279E+02  0.47000000000E+01 0. -1.
          5    1    5    5  503    0  0.37105704178E+01  0.35038982988E+02  0.61064108371E+02  0.70657016586E+02  0.47000000000E+01 0.  1.
         -5    1    5    5    0  503 -0.59185208453E+02 -0.48506792657E+02 -0.47799604917E+01  0.76816247343E+02  0.47000000000E+01 0.  1.
<mgrwt>
<rscale>  0 0.27513568E+03</rscale>
<asrwt>0</asrwt>
<pdfrwt beam="1">  1        2 0.34731917E-01 0.27513568E+03</pdfrwt>
<pdfrwt beam="2">  1       -2 0.12896693E-01 0.27513568E+03</pdfrwt>
<totfact> 0.65055227E+03</totfact>
</mgrwt>
</event>
<event>
 9    1  0.2098759E-002  0.2639186E+03  0.7818608E-02  0.1104811E+00
          2   -1    0    0  501    0  0.00000000000E+00  0.00000000000E+00  0.85711124612E+03  0.85711124612E+03  0.00000000000E+00 0.  1.
         -2   -1    0    0    0  501 -0.00000000000E+00 -0.00000000000E+00 -0.20316216207E+02  0.20316216207E+02  0.00000000000E+00 0.  1.
         36    2    1    2    0    0 -0.71054273576E-14  0.71054273576E-14  0.83679502991E+03  0.87742746233E+03  0.26391860404E+03 0.  0.
         25    2    3    3    0    0  0.40641777262E+02 -0.25758279163E+02  0.39985068795E+03  0.42117791304E+03  0.12326807688E+03 0.  0.
         25    2    3    3    0    0 -0.40641777262E+02  0.25758279163E+02  0.43694434197E+03  0.45624954929E+03  0.12218040040E+03 0.  0.
          5    1    4    4  502    0 -0.37352485760E+02 -0.68921431303E+01  0.54500101173E+02  0.66596252577E+02  0.47000000000E+01 0.  1.
         -5    1    4    4    0  502  0.77994263022E+02 -0.18866136033E+02  0.34535058677E+03  0.35458166046E+03  0.47000000000E+01 0.  1.
          5    1    5    5  503    0  0.30681456752E+02  0.41397041121E+02  0.11513390261E+03  0.12622587822E+03  0.47000000000E+01 0.  1.
         -5    1    5    5    0  503 -0.71323234013E+02 -0.15638761958E+02  0.32181043936E+03  0.33002367107E+03  0.47000000000E+01 0.  1.
<mgrwt>
<rscale>  0 0.26391860E+03</rscale>
<asrwt>0</asrwt>
<pdfrwt beam="1">  1        2 0.13186324E+00 0.26391860E+03</pdfrwt>
<pdfrwt beam="2">  1       -2 0.31255724E-02 0.26391860E+03</pdfrwt>
<totfact> 0.12849649E+04</totfact>
</mgrwt>
</event>
<event>
 9    1  0.2098759E-002  0.2766649E+03  0.7818608E-02  0.1097525E+00
          3   -1    0    0  501    0  0.00000000000E+00  0.00000000000E+00  0.14405150727E+03  0.14405150727E+03  0.00000000000E+00 0. -1.
         -3   -1    0    0    0  501 -0.00000000000E+00 -0.00000000000E+00 -0.13284042712E+03  0.13284042712E+03  0.00000000000E+00 0. -1.
         36    2    1    2    0    0  0.00000000000E+00  0.00000000000E+00  0.11211080141E+02  0.27689193439E+03  0.27666487853E+03 0.  0.
         25    2    3    3    0    0 -0.19235090425E+02  0.52975600197E+02  0.42589822961E+02  0.14304927139E+03  0.12438970257E+03 0.  0.
         25    2    3    3    0    0  0.19235090425E+02 -0.52975600197E+02 -0.31378742819E+02  0.13384266300E+03  0.11727246061E+03 0.  0.
          5    1    4    4  502    0  0.18221532035E+02 -0.20118453528E+02  0.53388635280E+02  0.60076724105E+02  0.47000000000E+01 0. -1.
         -5    1    4    4    0  502 -0.37456622460E+02  0.73094053725E+02 -0.10798812320E+02  0.82972547289E+02  0.47000000000E+01 0. -1.
          5    1    5    5  503    0 -0.11989084036E+02 -0.60477622926E+00  0.38724908307E+02  0.40814365286E+02  0.47000000000E+01 0.  1.
         -5    1    5    5    0  503  0.31224174461E+02 -0.52370823968E+02 -0.70103651126E+02  0.93028297711E+02  0.47000000000E+01 0.  1.
<mgrwt>
<rscale>  0 0.27666488E+03</rscale>
<asrwt>0</asrwt>
<pdfrwt beam="1">  1        3 0.22161770E-01 0.27666488E+03</pdfrwt>
<pdfrwt beam="2">  1       -3 0.20436989E-01 0.27666488E+03</pdfrwt>
<totfact> 0.10268049E+03</totfact>
</mgrwt>
</event>
<event>
 9    1  0.2098759E-002  0.2738520E+03  0.7818608E-02  0.1099095E+00
         -1   -1    0    0    0  501 -0.00000000000E+00  0.00000000000E+00  0.50937906100E+02  0.50937906100E+02  0.00000000000E+00 0. -1.
          1   -1    0    0  501    0  0.00000000000E+00 -0.00000000000E+00 -0.36807023796E+03  0.36807023796E+03  0.00000000000E+00 0. -1.
         36    2    1    2    0    0 -0.14210854715E-13  0.71054273576E-14 -0.31713233186E+03  0.41900814406E+03  0.27385198352E+03 0.  0.
         25    2    3    3    0    0 -0.35077126896E+02  0.47562299102E+02 -0.18596887761E+03  0.23168049956E+03  0.12489536944E+03 0.  0.
         25    2    3    3    0    0  0.35077126896E+02 -0.47562299102E+02 -0.13116345425E+03  0.18732764451E+03  0.11998007142E+03 0.  0.
          5    1    4    4  502    0 -0.40914999706E+02  0.27895070508E+02 -0.55641321489E+01  0.50052190023E+02  0.47000000000E+01 0.  1.
         -5    1    4    4    0  502  0.58378728099E+01  0.19667228593E+02 -0.18040474546E+03  0.18162830953E+03  0.47000000000E+01 0.  1.
          5    1    5    5  503    0  0.67785055599E+02 -0.19231574726E+02 -0.29113446883E+02  0.76382917059E+02  0.47000000000E+01 0. -1.
         -5    1    5    5    0  503 -0.32707928704E+02 -0.28330724376E+02 -0.10205000737E+03  0.11094472745E+03  0.47000000000E+01 0. -1.
<mgrwt>
<rscale>  0 0.27385198E+03</rscale>
<asrwt>0</asrwt>
<pdfrwt beam="1">  1        1 0.56626192E-01 0.27385198E+03</pdfrwt>
<pdfrwt beam="2">  1       -1 0.78366007E-02 0.27385198E+03</pdfrwt>
<totfact> 0.59579630E+03</totfact>
</mgrwt>
</event>
<event>
 9    1  0.2098759E-002  0.2723584E+03  0.7818608E-02  0.1099937E+00
          1   -1    0    0  501    0  0.00000000000E+00  0.00000000000E+00  0.11064071456E+04  0.11064071456E+04  0.00000000000E+00 0.  1.
         -1   -1    0    0    0  501 -0.00000000000E+00 -0.00000000000E+00 -0.16761252127E+02  0.16761252127E+02  0.00000000000E+00 0.  1.
         36    2    1    2    0    0  0.35527136788E-14  0.00000000000E+00  0.10896458934E+04  0.11231683977E+04  0.27235836042E+03 0.  0.
         25    2    3    3    0    0  0.31948343779E+02  0.20608290202E+02  0.50455667423E+03  0.52397923183E+03  0.13613008332E+03 0.  0.
         25    2    3    3    0    0 -0.31948343779E+02 -0.20608290202E+02  0.58508921920E+03  0.59918916586E+03  0.12350248483E+03 0.  0.
          5    1    4    4  502    0  0.43482595305E+01  0.46670362914E+02  0.53419195347E+02  0.71223104165E+02  0.47000000000E+01 0. -1.
         -5    1    4    4    0  502  0.27600084248E+02 -0.26062072712E+02  0.45113747888E+03  0.45275612767E+03  0.47000000000E+01 0. -1.
          5    1    5    5  503    0 -0.39642377089E+02 -0.12159464670E+02  0.55413860233E+02  0.69369709155E+02  0.47000000000E+01 0.  1.
         -5    1    5    5    0  503  0.76940333100E+01 -0.84488255323E+01  0.52967535897E+03  0.52981945670E+03  0.47000000000E+01 0.  1.
<mgrwt>
<rscale>  0 0.27235836E+03</rscale>
<asrwt>0</asrwt>
<pdfrwt beam="1">  1        1 0.17021643E+00 0.27235836E+03</pdfrwt>
<pdfrwt beam="2">  1       -1 0.25786550E-02 0.27235836E+03</pdfrwt>
<totfact> 0.62939401E+03</totfact>
</mgrwt>
</event>
<event>
 9    1  0.2098759E-002  0.2759478E+03  0.7818608E-02  0.1097923E+00
          3   -1    0    0  501    0  0.00000000000E+00  0.00000000000E+00  0.45973148928E+03  0.45973148928E+03  0.00000000000E+00 0. -1.
         -3   -1    0    0    0  501 -0.00000000000E+00 -0.00000000000E+00 -0.41408518108E+02  0.41408518108E+02  0.00000000000E+00 0. -1.
         36    2    1    2    0    0  0.00000000000E+00  0.71054273576E-14  0.41832297117E+03  0.50114000739E+03  0.27594781897E+03 0.  0.
         25    2    3    3    0    0 -0.43312008193E+02  0.20580224459E+02  0.15717203986E+03  0.20782381339E+03  0.12723290299E+03 0.  0.
         25    2    3    3    0    0  0.43312008193E+02 -0.20580224459E+02  0.26115093131E+03  0.29331619400E+03  0.12463990150E+03 0.  0.
          5    1    4    4  502    0  0.31682807108E+02  0.17711841215E+01 -0.57623813682E+00  0.32083631494E+02  0.47000000000E+01 0. -1.
         -5    1    4    4    0  502 -0.74994815302E+02  0.18809040338E+02  0.15774827800E+03  0.17574018189E+03  0.47000000000E+01 0. -1.
          5    1    5    5  503    0  0.64974460622E+02 -0.22007263827E+02  0.60946853978E+02  0.91883672130E+02  0.47000000000E+01 0.  1.
         -5    1    5    5    0  503 -0.21662452428E+02  0.14270393682E+01  0.20020407733E+03  0.20143252187E+03  0.47000000000E+01 0.  1.
<mgrwt>
<rscale>  0 0.27594782E+03</rscale>
<asrwt>0</asrwt>
<pdfrwt beam="1">  1        3 0.70727918E-01 0.27594782E+03</pdfrwt>
<pdfrwt beam="2">  1       -3 0.63705416E-02 0.27594782E+03</pdfrwt>
<totfact> 0.76524909E+02</totfact>
</mgrwt>
</event>
<event>
 9    1  0.2098759E-002  0.2763120E+03  0.7818608E-02  0.1097720E+00
          2   -1    0    0  501    0  0.00000000000E+00  0.00000000000E+00  0.10606084281E+04  0.10606084281E+04  0.00000000000E+00 0. -1.
         -2   -1    0    0    0  501 -0.00000000000E+00 -0.00000000000E+00 -0.17996356052E+02  0.17996356052E+02  0.00000000000E+00 0. -1.
         36    2    1    2    0    0 -0.71054273576E-14 -0.71054273576E-14  0.10426120720E+04  0.10786047841E+04  0.27631204754E+03 0.  0.
         25    2    3    3    0    0  0.15594089987E+02 -0.32544425354E+02  0.29751053714E+03  0.32193322496E+03  0.11758471993E+03 0.  0.
         25    2    3    3    0    0 -0.15594089987E+02  0.32544425354E+02  0.74510153489E+03  0.75667155917E+03  0.12678026621E+03 0.  0.
          5    1    4    4  502    0 -0.22521167029E+02  0.31499548000E+02  0.16769245910E+03  0.17216932168E+03  0.47000000000E+01 0.  1.
         -5    1    4    4    0  502  0.38115257015E+02 -0.64043973354E+02  0.12981807804E+03  0.14976390328E+03  0.47000000000E+01 0.  1.
          5    1    5    5  503    0 -0.52231956957E+02 -0.16402259840E+02  0.53471156439E+03  0.53752744911E+03  0.47000000000E+01 0. -1.
         -5    1    5    5    0  503  0.36637866970E+02  0.48946685195E+02  0.21038997050E+03  0.21914411006E+03  0.47000000000E+01 0. -1.
<mgrwt>
<rscale>  0 0.27631205E+03</rscale>
<asrwt>0</asrwt>
<pdfrwt beam="1">  1        2 0.16317048E+00 0.27631205E+03</pdfrwt>
<pdfrwt beam="2">  1       -2 0.27686710E-02 0.27631205E+03</pdfrwt>
<totfact> 0.11491775E+04</totfact>
</mgrwt>
</event>
<event>
 9    1  0.2098759E-002  0.2746205E+03  0.7818608E-02  0.1098664E+00
         -2   -1    0    0    0  501 -0.00000000000E+00  0.00000000000E+00  0.18556286600E+02  0.18556286600E+02  0.00000000000E+00 0. -1.
          2   -1    0    0  501    0  0.00000000000E+00 -0.00000000000E+00 -0.10160495860E+04  0.10160495860E+04  0.00000000000E+00 0. -1.
         36    2    1    2    0    0 -0.71054273576E-14 -0.71054273576E-14 -0.99749329939E+03  0.10346058726E+04  0.27462051866E+03 0.  0.
         25    2    3    3    0    0  0.25161781765E+02 -0.61825280725E+02 -0.46079251186E+03  0.48011298721E+03  0.11714632262E+03 0.  0.
         25    2    3    3    0    0 -0.25161781765E+02  0.61825280725E+02 -0.53670078754E+03  0.55449288539E+03  0.12230757950E+03 0.  0.
          5    1    4    4  502    0  0.43151597150E+02 -0.35941553575E+02 -0.43628484156E+03  0.43990954591E+03  0.47000000000E+01 0. -1.
         -5    1    4    4    0  502 -0.17989815385E+02 -0.25883727150E+02 -0.24507670303E+02  0.40203441301E+02  0.47000000000E+01 0. -1.
          5    1    5    5  503    0  0.47170724235E+02  0.15372619150E+02 -0.14137472596E+03  0.14990095992E+03  0.47000000000E+01 0. -1.
         -5    1    5    5    0  503 -0.72332506000E+02  0.46452661575E+02 -0.39532606157E+03  0.40459192546E+03  0.47000000000E+01 0. -1.
<mgrwt>
<rscale>  0 0.27462052E+03</rscale>
<asrwt>0</asrwt>
<pdfrwt beam="1">  1        2 0.15631535E+00 0.27462052E+03</pdfrwt>
<pdfrwt beam="2">  1       -2 0.28548129E-02 0.27462052E+03</pdfrwt>
<totfact> 0.11678201E+04</totfact>
</mgrwt>
</event>
<event>
 9    1  0.2098759E-002  0.2749585E+03  0.7818608E-02  0.1098475E+00
         -2   -1    0    0    0  501 -0.00000000000E+00  0.00000000000E+00  0.23826441792E+02  0.23826441792E+02  0.00000000000E+00 0.  1.
          2   -1    0    0  501    0  0.00000000000E+00 -0.00000000000E+00 -0.79325938769E+03  0.79325938769E+03  0.00000000000E+00 0.  1.
         36    2    1    2    0    0  0.00000000000E+00 -0.71054273576E-14 -0.76943294590E+03  0.81708582948E+03  0.27495853234E+03 0.  0.
         25    2    3    3    0    0 -0.17160673704E+02 -0.22741841406E+02 -0.24063186011E+03  0.27296320048E+03  0.12567233843E+03 0.  0.
         25    2    3    3    0    0  0.17160673704E+02  0.22741841406E+02 -0.52880108579E+03  0.54412262900E+03  0.12500866764E+03 0.  0.
          5    1    4    4  502    0 -0.79240610830E+01 -0.21698233897E+02  0.74041251516E+01  0.24708605132E+02  0.47000000000E+01 0. -1.
         -5    1    4    4    0  502 -0.92366126213E+01 -0.10436075091E+01 -0.24803598526E+03  0.24825459535E+03  0.47000000000E+01 0. -1.
          5    1    5    5  503    0  0.18781028080E+02  0.66779066256E+02 -0.18786927482E+03  0.20032255272E+03  0.47000000000E+01 0. -1.
         -5    1    5    5    0  503 -0.16203543755E+01 -0.44037224849E+02 -0.34093181097E+03  0.34380007628E+03  0.47000000000E+01 0. -1.
<mgrwt>
<rscale>  0 0.27495853E+03</rscale>
<asrwt>0</asrwt>
<pdfrwt beam="1">  1        2 0.12203991E+00 0.27495853E+03</pdfrwt>
<pdfrwt beam="2">  1       -2 0.36656064E-02 0.27495853E+03</pdfrwt>
<totfact> 0.11205564E+04</totfact>
</mgrwt>
</event>
<event>
 9    1  0.2098759E-002  0.2750560E+03  0.7818608E-02  0.1098420E+00
         -2   -1    0    0    0  501 -0.00000000000E+00  0.00000000000E+00  0.49577667188E+02  0.49577667188E+02  0.00000000000E+00 0. -1.
          2   -1    0    0  501    0  0.00000000000E+00 -0.00000000000E+00 -0.38150134947E+03  0.38150134947E+03  0.00000000000E+00 0. -1.
         36    2    1    2    0    0 -0.25535129566E-14  0.00000000000E+00 -0.33192368228E+03  0.43107901666E+03  0.27505597202E+03 0.  0.
         25    2    3    3    0    0  0.24425799400E+00  0.40869048112E+02 -0.10107091912E+03  0.16426129490E+03  0.12286620184E+03 0.  0.
         25    2    3    3    0    0 -0.24425799400E+00 -0.40869048112E+02 -0.23085276316E+03  0.26681772176E+03  0.12739057904E+03 0.  0.
          5    1    4    4  502    0 -0.60795731955E+00  0.52308024448E+02  0.91775810411E+01  0.53318074117E+02  0.47000000000E+01 0. -1.
         -5    1    4    4    0  502  0.85221531355E+00 -0.11438976336E+02 -0.11024850016E+03  0.11094322078E+03  0.47000000000E+01 0. -1.
          5    1    5    5  503    0 -0.47000270097E+02 -0.39771400878E+02 -0.20299368146E+03  0.21217755402E+03  0.47000000000E+01 0. -1.
         -5    1    5    5    0  503  0.46756012103E+02 -0.10976472332E+01 -0.27859081706E+02  0.54640167741E+02  0.47000000000E+01 0. -1.
<mgrwt>
<rscale>  0 0.27505597E+03</rscale>
<asrwt>0</asrwt>
<pdfrwt beam="1">  1        2 0.58692515E-01 0.27505597E+03</pdfrwt>
<pdfrwt beam="2">  1       -2 0.76273335E-02 0.27505597E+03</pdfrwt>
<totfact> 0.85112096E+03</totfact>
</mgrwt>
</event>
<event>
 9    1  0.2098759E-002  0.2755051E+03  0.7818608E-02  0.1098170E+00
          1   -1    0    0  501    0  0.00000000000E+00  0.00000000000E+00  0.11417802275E+03  0.11417802275E+03  0.00000000000E+00 0. -1.
         -1   -1    0    0    0  501 -0.00000000000E+00 -0.00000000000E+00 -0.16619459687E+03  0.16619459687E+03  0.00000000000E+00 0. -1.
         36    2    1    2    0    0  0.71054273576E-14  0.00000000000E+00 -0.52016574111E+02  0.28037261962E+03  0.27550513943E+03 0.  0.
         25    2    3    3    0    0  0.33494673309E+02 -0.97138161188E+01  0.48155289377E+02  0.12020814065E+03  0.10447398634E+03 0.  0.
         25    2    3    3    0    0 -0.33494673309E+02  0.97138161188E+01 -0.10017186349E+03  0.16016447897E+03  0.12000836106E+03 0.  0.
          5    1    4    4  502    0 -0.25617469472E+02 -0.27039962031E+02  0.44642060977E+02  0.58330248560E+02  0.47000000000E+01 0.  1.
         -5    1    4    4    0  502  0.59112142781E+02  0.17326145912E+02  0.35132283992E+01  0.61877892095E+02  0.47000000000E+01 0.  1.
          5    1    5    5  503    0  0.38660247808E+02  0.29076659289E+02 -0.27535466668E+02  0.55860171864E+02  0.47000000000E+01 0.  1.
         -5    1    5    5    0  503 -0.72154921117E+02 -0.19362843170E+02 -0.72636396820E+02  0.10430430710E+03  0.47000000000E+01 0.  1.
<mgrwt>
<rscale>  0 0.27550514E+03</rscale>
<asrwt>0</asrwt>
<pdfrwt beam="1">  1        1 0.17565850E-01 0.27550514E+03</pdfrwt>
<pdfrwt beam="2">  1       -1 0.25568399E-01 0.27550514E+03</pdfrwt>
<totfact> 0.40334350E+03</totfact>
</mgrwt>
</event>
<event>
 9    1  0.2098759E-002  0.2747959E+03  0.7818608E-02  0.1098566E+00
         -2   -1    0    0    0  501 -0.00000000000E+00  0.00000000000E+00  0.22910003156E+03  0.22910003156E+03  0.00000000000E+00 0.  1.
          2   -1    0    0  501    0  0.00000000000E+00 -0.00000000000E+00 -0.82401567609E+02  0.82401567609E+02  0.00000000000E+00 0.  1.
         36    2    1    2    0    0  0.14210854715E-13  0.44408920985E-15  0.14669846395E+03  0.31150159917E+03  0.27479593694E+03 0.  0.
         25    2    3    3    0    0 -0.64883144793E+02  0.24889719436E+01  0.12182798729E+03  0.18341490354E+03  0.12075988942E+03 0.  0.
         25    2    3    3    0    0  0.64883144793E+02 -0.24889719436E+01  0.24870476660E+02  0.12808669563E+03  0.10757157398E+03 0.  0.
          5    1    4    4  502    0  0.32107360036E+02  0.46582776691E+01  0.59722279166E+02  0.68127987994E+02  0.47000000000E+01 0.  1.
         -5    1    4    4    0  502 -0.96990504830E+02 -0.21693057255E+01  0.62105708128E+02  0.11528691555E+03  0.47000000000E+01 0.  1.
          5    1    5    5  503    0  0.53438631165E+02  0.15676518465E+02 -0.33882687914E+02  0.65357226626E+02  0.47000000000E+01 0. -1.
         -5    1    5    5    0  503  0.11444513628E+02 -0.18165490409E+02  0.58753164574E+02  0.62729469003E+02  0.47000000000E+01 0. -1.
<mgrwt>
<rscale>  0 0.27479594E+03</rscale>
<asrwt>0</asrwt>
<pdfrwt beam="1">  1        2 0.12677164E-01 0.27479594E+03</pdfrwt>
<pdfrwt beam="2">  1       -2 0.35246158E-01 0.27479594E+03</pdfrwt>
<totfact> 0.36033747E+03</totfact>
</mgrwt>
</event>
<event>
 9    1  0.2098759E-002  0.2747909E+03  0.7818608E-02  0.1098569E+00
          1   -1    0    0  501    0  0.00000000000E+00  0.00000000000E+00  0.86828303189E+02  0.86828303189E+02  0.00000000000E+00 0.  1.
         -1   -1    0    0    0  501 -0.00000000000E+00 -0.00000000000E+00 -0.21741192236E+03  0.21741192236E+03  0.00000000000E+00 0.  1.
         36    2    1    2    0    0  0.00000000000E+00  0.00000000000E+00 -0.13058361917E+03  0.30424022555E+03  0.27479089004E+03 0.  0.
         25    2    3    3    0    0 -0.49270903744E+02  0.30140934866E+02 -0.53145231550E+02  0.14674884844E+03  0.12399480219E+03 0.  0.
         25    2    3    3    0    0  0.49270903744E+02 -0.30140934866E+02 -0.77438387624E+02  0.15749137712E+03  0.12438139763E+03 0.  0.
          5    1    4    4  502    0 -0.92316762288E+01 -0.46858085275E+02 -0.74816826766E+01  0.48569224590E+02  0.47000000000E+01 0. -1.
         -5    1    4    4    0  502 -0.40039227516E+02  0.76999020141E+02 -0.45663548873E+02  0.98179623845E+02  0.47000000000E+01 0. -1.
          5    1    5    5  503    0 -0.85909798588E+01 -0.45134354347E+02 -0.85320081912E+02  0.97018149099E+02  0.47000000000E+01 0.  1.
         -5    1    5    5    0  503  0.57861883603E+02  0.14993419482E+02  0.78816942875E+01  0.60473228016E+02  0.47000000000E+01 0.  1.
<mgrwt>
<rscale>  0 0.27479089E+03</rscale>
<asrwt>0</asrwt>
<pdfrwt beam="1">  1        1 0.13358201E-01 0.27479089E+03</pdfrwt>
<pdfrwt beam="2">  1       -1 0.33447988E-01 0.27479089E+03</pdfrwt>
<totfact> 0.36611061E+03</totfact>
</mgrwt>
</event>
<event>
 9    1  0.2098759E-002  0.2734797E+03  0.7818608E-02  0.1099304E+00
          1   -1    0    0  501    0  0.00000000000E+00  0.00000000000E+00  0.22402612386E+03  0.22402612386E+03  0.00000000000E+00 0. -1.
         -1   -1    0    0    0  501 -0.00000000000E+00 -0.00000000000E+00 -0.83462523007E+02  0.83462523007E+02  0.00000000000E+00 0. -1.
         36    2    1    2    0    0  0.00000000000E+00  0.71054273576E-14  0.14056360085E+03  0.30748864687E+03  0.27347969224E+03 0.  0.
         25    2    3    3    0    0  0.29903186027E+02  0.36188233066E+02  0.98113335901E+02  0.16589138547E+03  0.12525947607E+03 0.  0.
         25    2    3    3    0    0 -0.29903186027E+02 -0.36188233066E+02  0.42450264952E+02  0.14159726140E+03  0.12666479658E+03 0.  0.
          5    1    4    4  502    0 -0.34926670388E+02  0.42320510899E+02  0.81772814682E+02  0.98588950538E+02  0.47000000000E+01 0.  1.
         -5    1    4    4    0  502  0.64829856416E+02 -0.61322778326E+01  0.16340521218E+02  0.67302434934E+02  0.47000000000E+01 0.  1.
          5    1    5    5  503    0 -0.70654550375E+02 -0.31954632636E+02 -0.60646010620E+01  0.77923253408E+02  0.47000000000E+01 0. -1.
         -5    1    5    5    0  503  0.40751364348E+02 -0.42336004305E+01  0.48514866014E+02  0.63674007988E+02  0.47000000000E+01 0. -1.
<mgrwt>
<rscale>  0 0.27347969E+03</rscale>
<asrwt>0</asrwt>
<pdfrwt beam="1">  1        1 0.34465557E-01 0.27347969E+03</pdfrwt>
<pdfrwt beam="2">  1       -1 0.12840388E-01 0.27347969E+03</pdfrwt>
<totfact> 0.51882122E+03</totfact>
</mgrwt>
</event>
<event>
 9    1  0.2098759E-002  0.2748150E+03  0.7818608E-02  0.1098555E+00
         -1   -1    0    0    0  501 -0.00000000000E+00  0.00000000000E+00  0.16629527585E+02  0.16629527585E+02  0.00000000000E+00 0.  1.
          1   -1    0    0  501    0  0.00000000000E+00 -0.00000000000E+00 -0.11353789787E+04  0.11353789787E+04  0.00000000000E+00 0.  1.
         36    2    1    2    0    0 -0.71054273576E-14 -0.35527136788E-14 -0.11187494511E+04  0.11520085063E+04  0.27481496354E+03 0.  0.
         25    2    3    3    0    0 -0.47255415046E+02 -0.21951328348E+02 -0.47099344920E+03  0.49032481815E+03  0.12597088171E+03 0.  0.
         25    2    3    3    0    0  0.47255415046E+02  0.21951328348E+02 -0.64775600194E+03  0.66168368816E+03  0.12458944602E+03 0.  0.
          5    1    4    4  502    0  0.37673733404E+02 -0.13512102655E+02 -0.25269774009E+03  0.25589084578E+03  0.47000000000E+01 0.  1.
         -5    1    4    4    0  502 -0.84929148450E+02 -0.84392256930E+01 -0.21829570911E+03  0.23443397237E+03  0.47000000000E+01 0.  1.
          5    1    5    5  503    0  0.37680197761E+02  0.64312430466E+02 -0.23403997251E+03  0.24566783417E+03  0.47000000000E+01 0.  1.
         -5    1    5    5    0  503  0.95752172855E+01 -0.42361102118E+02 -0.41371602943E+03  0.41601585399E+03  0.47000000000E+01 0.  1.
<mgrwt>
<rscale>  0 0.27481496E+03</rscale>
<asrwt>0</asrwt>
<pdfrwt beam="1">  1        1 0.17467374E+00 0.27481496E+03</pdfrwt>
<pdfrwt beam="2">  1       -1 0.25583881E-02 0.27481496E+03</pdfrwt>
<totfact> 0.60714562E+03</totfact>
</mgrwt>
</event>
<event>
 9    1  0.2098759E-002  0.2745007E+03  0.7818608E-02  0.1098731E+00
          2   -1    0    0  501    0  0.00000000000E+00  0.00000000000E+00  0.52923500884E+03  0.52923500884E+03  0.00000000000E+00 0.  1.
         -2   -1    0    0    0  501 -0.00000000000E+00 -0.00000000000E+00 -0.35594131419E+02  0.35594131419E+02  0.00000000000E+00 0.  1.
         36    2    1    2    0    0  0.00000000000E+00  0.00000000000E+00  0.49364087742E+03  0.56482914026E+03  0.27450071371E+03 0.  0.
         25    2    3    3    0    0 -0.53281921918E+02  0.18070888304E+02  0.26713833930E+03  0.30018502985E+03  0.12483044347E+03 0.  0.
         25    2    3    3    0    0  0.53281921918E+02 -0.18070888304E+02  0.22650253812E+03  0.26464411041E+03  0.12477012940E+03 0.  0.
          5    1    4    4  502    0  0.86100598139E+01 -0.30209675283E+02  0.18012157589E+03  0.18290060063E+03  0.47000000000E+01 0. -1.
         -5    1    4    4    0  502 -0.61891981732E+02  0.48280563587E+02  0.87016763412E+02  0.11728442922E+03  0.47000000000E+01 0. -1.
          5    1    5    5  503    0 -0.16160833943E+02  0.36450488929E+02  0.11821855194E+03  0.12485001690E+03  0.47000000000E+01 0.  1.
         -5    1    5    5    0  503  0.69442755861E+02 -0.54521377233E+02  0.10828398619E+03  0.13979409351E+03  0.47000000000E+01 0.  1.
<mgrwt>
<rscale>  0 0.27450071E+03</rscale>
<asrwt>0</asrwt>
<pdfrwt beam="1">  1        2 0.81420764E-01 0.27450071E+03</pdfrwt>
<pdfrwt beam="2">  1       -2 0.54760206E-02 0.27450071E+03</pdfrwt>
<totfact> 0.98853064E+03</totfact>
</mgrwt>
</event>
<event>
 9    1  0.2098759E-002  0.2748888E+03  0.7818608E-02  0.1098514E+00
         -4   -1    0    0    0  501 -0.00000000000E+00  0.00000000000E+00  0.69524204021E+02  0.69524204021E+02  0.00000000000E+00 0.  1.
          4   -1    0    0  501    0  0.00000000000E+00 -0.00000000000E+00 -0.27171776756E+03  0.27171776756E+03  0.00000000000E+00 0.  1.
         36    2    1    2    0    0 -0.71054273576E-14  0.00000000000E+00 -0.20219356354E+03  0.34124197158E+03  0.27488878848E+03 0.  0.
         25    2    3    3    0    0 -0.84743589153E+01  0.44267607486E+02 -0.15386970576E+03  0.20462860793E+03  0.12714379655E+03 0.  0.
         25    2    3    3    0    0  0.84743589153E+01 -0.44267607486E+02 -0.48323857775E+02  0.13661336365E+03  0.11956830711E+03 0.  0.
          5    1    4    4  502    0  0.57051193221E+02  0.18707388807E+02 -0.96463472439E+02  0.11371937636E+03  0.47000000000E+01 0. -1.
         -5    1    4    4    0  502 -0.65525552136E+02  0.25560218678E+02 -0.57406233323E+02  0.90909231577E+02  0.47000000000E+01 0. -1.
          5    1    5    5  503    0 -0.45251874003E+02 -0.12156397709E+02 -0.56236349766E+02  0.73349349970E+02  0.47000000000E+01 0. -1.
         -5    1    5    5    0  503  0.53726232918E+02 -0.32111209777E+02  0.79124919911E+01  0.63264013676E+02  0.47000000000E+01 0. -1.
<mgrwt>
<rscale>  0 0.27488879E+03</rscale>
<asrwt>0</asrwt>
<pdfrwt beam="1">  1        4 0.41802733E-01 0.27488879E+03</pdfrwt>
<pdfrwt beam="2">  1       -4 0.10696032E-01 0.27488879E+03</pdfrwt>
<totfact> 0.70694732E+02</totfact>
</mgrwt>
</event>
<event>
 9    1  0.2098759E-002  0.2760228E+03  0.7818608E-02  0.1097881E+00
         -1   -1    0    0    0  501 -0.00000000000E+00  0.00000000000E+00  0.11931031958E+03  0.11931031958E+03  0.00000000000E+00 0.  1.
          1   -1    0    0  501    0  0.00000000000E+00 -0.00000000000E+00 -0.15964370900E+03  0.15964370900E+03  0.00000000000E+00 0.  1.
         36    2    1    2    0    0 -0.14210854715E-13  0.71054273576E-14 -0.40333389421E+02  0.27895402857E+03  0.27602276673E+03 0.  0.
         25    2    3    3    0    0  0.42900043589E+02 -0.33719491112E+02 -0.49769096659E+02  0.14357516996E+03  0.12312371269E+03 0.  0.
         25    2    3    3    0    0 -0.42900043589E+02  0.33719491112E+02  0.94357072379E+01  0.13537885861E+03  0.12353535918E+03 0.  0.
          5    1    4    4  502    0  0.70528995880E+02  0.72894816055E+01 -0.59832683713E+02  0.92895187401E+02  0.47000000000E+01 0. -1.
         -5    1    4    4    0  502 -0.27628952292E+02 -0.41008972718E+02  0.10063587054E+02  0.50679982562E+02  0.47000000000E+01 0. -1.
          5    1    5    5  503    0  0.40846141550E+02  0.89533280464E+01  0.21226370735E+02  0.47129801370E+02  0.47000000000E+01 0. -1.
         -5    1    5    5    0  503 -0.83746185138E+02  0.24766163066E+02 -0.11790663497E+02  0.88249057241E+02  0.47000000000E+01 0. -1.
<mgrwt>
<rscale>  0 0.27602277E+03</rscale>
<asrwt>0</asrwt>
<pdfrwt beam="1">  1        1 0.24560571E-01 0.27602277E+03</pdfrwt>
<pdfrwt beam="2">  1       -1 0.18355434E-01 0.27602277E+03</pdfrwt>
<totfact> 0.45124488E+03</totfact>
</mgrwt>
</event>
<event>
 9    1  0.2098759E-002  0.2755913E+03  0.7818608E-02  0.1098122E+00
          2   -1    0    0  501    0  0.00000000000E+00  0.00000000000E+00  0.76963879104E+03  0.76963879104E+03  0.00000000000E+00 0. -1.
         -2   -1    0    0    0  501 -0.00000000000E+00 -0.00000000000E+00 -0.24670855212E+02  0.24670855212E+02  0.00000000000E+00 0. -1.
         36    2    1    2    0    0  0.00000000000E+00  0.00000000000E+00  0.74496793583E+03  0.79430964625E+03  0.27559134369E+03 0.  0.
         25    2    3    3    0    0  0.71630472009E+01  0.52859093852E+02  0.31825950411E+03  0.34619882081E+03  0.12537590888E+03 0.  0.
         25    2    3    3    0    0 -0.71630472009E+01 -0.52859093852E+02  0.42670843172E+03  0.44811082544E+03  0.12600727411E+03 0.  0.
          5    1    4    4  502    0  0.45534891211E+02 -0.11516852377E+02  0.20459519225E+03  0.20996987141E+03  0.47000000000E+01 0.  1.
         -5    1    4    4    0  502 -0.38371844010E+02  0.64375946229E+02  0.11366431186E+03  0.13622894940E+03  0.47000000000E+01 0.  1.
          5    1    5    5  503    0  0.44815773912E+02 -0.48048249136E+02  0.34358915667E+03  0.34984666129E+03  0.47000000000E+01 0.  1.
         -5    1    5    5    0  503 -0.51978821113E+02 -0.48108447154E+01  0.83119275052E+02  0.98264164151E+02  0.47000000000E+01 0.  1.
<mgrwt>
<rscale>  0 0.27559134E+03</rscale>
<asrwt>0</asrwt>
<pdfrwt beam="1">  1        2 0.11840595E+00 0.27559134E+03</pdfrwt>
<pdfrwt beam="2">  1       -2 0.37955168E-02 0.27559134E+03</pdfrwt>
<totfact> 0.11049485E+04</totfact>
</mgrwt>
</event>
<event>
 9    1  0.2098759E-002  0.2752004E+03  0.7818608E-02  0.1098340E+00
          3   -1    0    0  501    0  0.00000000000E+00  0.00000000000E+00  0.27123262395E+03  0.27123262395E+03  0.00000000000E+00 0.  1.
         -3   -1    0    0    0  501 -0.00000000000E+00 -0.00000000000E+00 -0.69806538068E+02  0.69806538068E+02  0.00000000000E+00 0.  1.
         36    2    1    2    0    0  0.35527136788E-14  0.00000000000E+00  0.20142608588E+03  0.34103916202E+03  0.27520036693E+03 0.  0.
         25    2    3    3    0    0 -0.21254033647E+02 -0.38946803890E+01  0.29260318271E+02  0.12550376307E+03  0.12011713383E+03 0.  0.
         25    2    3    3    0    0  0.21254033647E+02  0.38946803890E+01  0.17216576761E+03  0.21553539895E+03  0.12785755426E+03 0.  0.
          5    1    4    4  502    0  0.22420075873E+02  0.19741180637E+02 -0.33634351536E+02  0.45229786848E+02  0.47000000000E+01 0.  1.
         -5    1    4    4    0  502 -0.43674109520E+02 -0.23635861026E+02  0.62894669807E+02  0.80273976224E+02  0.47000000000E+01 0.  1.
          5    1    5    5  503    0  0.38914034318E+02  0.43255982390E+02  0.16022300938E+03  0.17052532015E+03  0.47000000000E+01 0.  1.
         -5    1    5    5    0  503 -0.17660000672E+02 -0.39361302001E+02  0.11942758237E+02  0.45010078796E+02  0.47000000000E+01 0.  1.
<mgrwt>
<rscale>  0 0.27520037E+03</rscale>
<asrwt>0</asrwt>
<pdfrwt beam="1">  1        3 0.41728096E-01 0.27520037E+03</pdfrwt>
<pdfrwt beam="2">  1       -3 0.10739467E-01 0.27520037E+03</pdfrwt>
<totfact> 0.95268001E+02</totfact>
</mgrwt>
</event>
<event>
 9    1  0.2098759E-002  0.2733744E+03  0.7818608E-02  0.1099364E+00
         -2   -1    0    0    0  501 -0.00000000000E+00  0.00000000000E+00  0.18926889273E+02  0.18926889273E+02  0.00000000000E+00 0. -1.
          2   -1    0    0  501    0  0.00000000000E+00 -0.00000000000E+00 -0.98713478788E+03  0.98713478788E+03  0.00000000000E+00 0. -1.
         36    2    1    2    0    0  0.00000000000E+00  0.14210854715E-13 -0.96820789861E+03  0.10060616772E+04  0.27337440134E+03 0.  0.
         25    2    3    3    0    0 -0.20295551411E+02 -0.32112893059E+02 -0.25199573828E+03  0.27896535772E+03  0.11347542195E+03 0.  0.
         25    2    3    3    0    0  0.20295551411E+02  0.32112893059E+02 -0.71621216033E+03  0.72709631944E+03  0.11944057865E+03 0.  0.
          5    1    4    4  502    0  0.57477506488E+01 -0.77712351309E+00  0.10722171210E+02  0.13065049328E+02  0.47000000000E+01 0. -1.
         -5    1    4    4    0  502 -0.26043302060E+02 -0.31335769546E+02 -0.26271790949E+03  0.26590030839E+03  0.47000000000E+01 0. -1.
          5    1    5    5  503    0  0.11042958284E+02  0.68309314642E+02 -0.25231908554E+03  0.26167751206E+03  0.47000000000E+01 0.  1.
         -5    1    5    5    0  503  0.92525931272E+01 -0.36196421583E+02 -0.46389307479E+03  0.46541880737E+03  0.47000000000E+01 0.  1.
<mgrwt>
<rscale>  0 0.27337440E+03</rscale>
<asrwt>0</asrwt>
<pdfrwt beam="1">  1        2 0.15186692E+00 0.27337440E+03</pdfrwt>
<pdfrwt beam="2">  1       -2 0.29118285E-02 0.27337440E+03</pdfrwt>
<totfact> 0.11809949E+04</totfact>
</mgrwt>
</event>
<event>
 9    1  0.2098759E-002  0.2751516E+03  0.7818608E-02  0.1098367E+00
          2   -1    0    0  501    0  0.00000000000E+00  0.00000000000E+00  0.25222669618E+04  0.25222669618E+04  0.00000000000E+00 0. -1.
         -2   -1    0    0    0  501 -0.00000000000E+00 -0.00000000000E+00 -0.75040031953E+01  0.75040031953E+01  0.00000000000E+00 0. -1.
         36    2    1    2    0    0  0.00000000000E+00  0.00000000000E+00  0.25147629586E+04  0.25297709650E+04  0.27515158979E+03 0.  0.
         25    2    3    3    0    0  0.14620638485E+02 -0.30989298821E+02  0.78892678733E+03  0.79932044257E+03  0.12382889175E+03 0.  0.
         25    2    3    3    0    0 -0.14620638485E+02  0.30989298821E+02  0.17258361713E+04  0.17304505225E+04  0.12155007517E+03 0.  0.
          5    1    4    4  502    0  0.16035363810E+02  0.18298205894E+02  0.67043543466E+03  0.67089322495E+03  0.47000000000E+01 0.  1.
         -5    1    4    4    0  502 -0.14147253251E+01 -0.49287504715E+02  0.11849135267E+03  0.12842721762E+03  0.47000000000E+01 0.  1.
          5    1    5    5  503    0 -0.12363161279E+01 -0.46479858676E+02  0.55160061617E+03  0.55357676568E+03  0.47000000000E+01 0. -1.
         -5    1    5    5    0  503 -0.13384322357E+02  0.77469157497E+02  0.11742355551E+04  0.11768737568E+04  0.47000000000E+01 0. -1.
<mgrwt>
<rscale>  0 0.27515159E+03</rscale>
<asrwt>0</asrwt>
<pdfrwt beam="1">  1        2 0.38804039E+00 0.27515159E+03</pdfrwt>
<pdfrwt beam="2">  1       -2 0.11544640E-02 0.27515159E+03</pdfrwt>
<totfact> 0.67449502E+03</totfact>
</mgrwt>
</event>
<event>
 9    1  0.2098759E-002  0.2750181E+03  0.7818608E-02  0.1098441E+00
          2   -1    0    0  501    0  0.00000000000E+00  0.00000000000E+00  0.29678523353E+03  0.29678523353E+03  0.00000000000E+00 0.  1.
         -2   -1    0    0    0  501 -0.00000000000E+00 -0.00000000000E+00 -0.63711880706E+02  0.63711880706E+02  0.00000000000E+00 0.  1.
         36    2    1    2    0    0  0.00000000000E+00  0.71054273576E-14  0.23307335282E+03  0.36049711423E+03  0.27501814772E+03 0.  0.
         25    2    3    3    0    0 -0.17727120331E+02  0.21538887401E+02  0.17554813428E+03  0.21995492810E+03  0.12955635252E+03 0.  0.
         25    2    3    3    0    0  0.17727120331E+02 -0.21538887401E+02  0.57525218537E+02  0.14054218614E+03  0.12515902225E+03 0.  0.
          5    1    4    4  502    0 -0.52389177181E+02  0.60486646161E+02  0.10794801464E+03  0.13445491480E+03  0.47000000000E+01 0. -1.
         -5    1    4    4    0  502  0.34662056850E+02 -0.38947758759E+02  0.67600119648E+02  0.85500013297E+02  0.47000000000E+01 0. -1.
          5    1    5    5  503    0 -0.84847039168E+01  0.21140472753E+02  0.81544109893E+02  0.84796471902E+02  0.47000000000E+01 0.  1.
         -5    1    5    5    0  503  0.26211824248E+02 -0.42679360155E+02 -0.24018891356E+02  0.55745714235E+02  0.47000000000E+01 0.  1.
<mgrwt>
<rscale>  0 0.27501815E+03</rscale>
<asrwt>0</asrwt>
<pdfrwt beam="1">  1        2 0.45659266E-01 0.27501815E+03</pdfrwt>
<pdfrwt beam="2">  1       -2 0.98018280E-02 0.27501815E+03</pdfrwt>
<totfact> 0.75231085E+03</totfact>
</mgrwt>
</event>
<event>
 9    1  0.2098759E-002  0.2755524E+03  0.7818608E-02  0.1098143E+00
         -2   -1    0    0    0  501 -0.00000000000E+00  0.00000000000E+00  0.76400255900E+03  0.76400255900E+03  0.00000000000E+00 0. -1.
          2   -1    0    0  501    0  0.00000000000E+00 -0.00000000000E+00 -0.24845829011E+02  0.24845829011E+02  0.00000000000E+00 0. -1.
         36    2    1    2    0    0 -0.71054273576E-14  0.71054273576E-14  0.73915672999E+03  0.78884838801E+03  0.27555236849E+03 0.  0.
         25    2    3    3    0    0  0.39370091558E+02  0.37481253502E+02  0.41901525113E+03  0.44217416519E+03  0.13034325147E+03 0.  0.
         25    2    3    3    0    0 -0.39370091558E+02 -0.37481253502E+02  0.32014147885E+03  0.34667422282E+03  0.12139852475E+03 0.  0.
          5    1    4    4  502    0  0.62880420648E+02  0.18750708209E+02  0.40193516292E+03  0.40728307299E+03  0.47000000000E+01 0. -1.
         -5    1    4    4    0  502 -0.23510329090E+02  0.18730545293E+02  0.17080088215E+02  0.34891092192E+02  0.47000000000E+01 0. -1.
          5    1    5    5  503    0 -0.15203317393E+01 -0.49590259879E+02  0.40592221222E+02  0.64275374034E+02  0.47000000000E+01 0. -1.
         -5    1    5    5    0  503 -0.37849759819E+02  0.12109006377E+02  0.27954925763E+03  0.28239884879E+03  0.47000000000E+01 0. -1.
<mgrwt>
<rscale>  0 0.27555237E+03</rscale>
<asrwt>0</asrwt>
<pdfrwt beam="1">  1        2 0.38224358E-02 0.27555237E+03</pdfrwt>
<pdfrwt beam="2">  1       -2 0.11753884E+00 0.27555237E+03</pdfrwt>
<totfact> 0.13159477E+03</totfact>
</mgrwt>
</event>
<event>
 9    1  0.2098759E-002  0.2726751E+03  0.7818608E-02  0.1099758E+00
          1   -1    0    0  501    0  0.00000000000E+00  0.00000000000E+00  0.95481945924E+03  0.95481945924E+03  0.00000000000E+00 0. -1.
         -1   -1    0    0    0  501 -0.00000000000E+00 -0.00000000000E+00 -0.19467481931E+02  0.19467481931E+02  0.00000000000E+00 0. -1.
         36    2    1    2    0    0  0.71054273576E-14  0.71054273576E-14  0.93535197731E+03  0.97428694117E+03  0.27267512222E+03 0.  0.
         25    2    3    3    0    0 -0.28508573068E+02 -0.27596223617E+02  0.31784492220E+03  0.34404648378E+03  0.12557188433E+03 0.  0.
         25    2    3    3    0    0  0.28508573068E+02  0.27596223617E+02  0.61750705511E+03  0.63024045739E+03  0.11964021368E+03 0.  0.
          5    1    4    4  502    0  0.73908943626E+00 -0.34124660585E+02  0.31106103662E+03  0.31296341194E+03  0.47000000000E+01 0.  1.
         -5    1    4    4    0  502 -0.29247662504E+02  0.65284369678E+01  0.67838855856E+01  0.31083071837E+02  0.47000000000E+01 0.  1.
          5    1    5    5  503    0  0.41282271403E+02  0.42723185459E+02  0.13820343788E+03  0.15050507217E+03  0.47000000000E+01 0.  1.
         -5    1    5    5    0  503 -0.12773698335E+02 -0.15126961842E+02  0.47930361723E+03  0.47973538522E+03  0.47000000000E+01 0.  1.
<mgrwt>
<rscale>  0 0.27267512E+03</rscale>
<asrwt>0</asrwt>
<pdfrwt beam="1">  1        1 0.14689526E+00 0.27267512E+03</pdfrwt>
<pdfrwt beam="2">  1       -1 0.29949980E-02 0.27267512E+03</pdfrwt>
<totfact> 0.65368991E+03</totfact>
</mgrwt>
</event>
<event>
 9    1  0.2098759E-002  0.2758711E+03  0.7818608E-02  0.1097966E+00
          1   -1    0    0  501    0  0.00000000000E+00  0.00000000000E+00  0.33598869043E+03  0.33598869043E+03  0.00000000000E+00 0.  1.
         -1   -1    0    0    0  501 -0.00000000000E+00 -0.00000000000E+00 -0.56627550002E+02  0.56627550002E+02  0.00000000000E+00 0.  1.
         36    2    1    2    0    0 -0.35527136788E-14 -0.71054273576E-14  0.27936114043E+03  0.39261624043E+03  0.27587110300E+03 0.  0.
         25    2    3    3    0    0 -0.22477540648E+02 -0.54482240253E+02  0.14000858896E+03  0.19669401050E+03  0.12495028790E+03 0.  0.
         25    2    3    3    0    0  0.22477540648E+02  0.54482240253E+02  0.13935255147E+03  0.19592222993E+03  0.12447020625E+03 0.  0.
          5    1    4    4  502    0  0.28881876316E+02 -0.60533749532E+02  0.27239881249E+02  0.72543771217E+02  0.47000000000E+01 0.  1.
         -5    1    4    4    0  502 -0.51359416964E+02  0.60515092791E+01  0.11276870771E+03  0.12415023928E+03  0.47000000000E+01 0.  1.
          5    1    5    5  503    0 -0.65882275270E+01  0.67602693120E+02  0.18088784026E+02  0.70447306311E+02  0.47000000000E+01 0. -1.
         -5    1    5    5    0  503  0.29065768175E+02 -0.13120452867E+02  0.12126376745E+03  0.12547492362E+03  0.47000000000E+01 0. -1.
<mgrwt>
<rscale>  0 0.27587110E+03</rscale>
<asrwt>0</asrwt>
<pdfrwt beam="1">  1        1 0.51690567E-01 0.27587110E+03</pdfrwt>
<pdfrwt beam="2">  1       -1 0.87119310E-02 0.27587110E+03</pdfrwt>
<totfact> 0.56898167E+03</totfact>
</mgrwt>
</event>
<event>
 9    1  0.2098759E-002  0.2742870E+03  0.7818608E-02  0.1098851E+00
          3   -1    0    0  501    0  0.00000000000E+00  0.00000000000E+00  0.14343486291E+02  0.14343486291E+02  0.00000000000E+00 0.  1.
         -3   -1    0    0    0  501 -0.00000000000E+00 -0.00000000000E+00 -0.13112806341E+04  0.13112806341E+04  0.00000000000E+00 0.  1.
         36    2    1    2    0    0 -0.14210854715E-13 -0.17763568394E-14 -0.12969371478E+04  0.13256241204E+04  0.27428697234E+03 0.  0.
         25    2    3    3    0    0  0.64975217399E+02  0.43476620278E+01 -0.42674433074E+03  0.44384138455E+03  0.10316864728E+03 0.  0.
         25    2    3    3    0    0 -0.64975217399E+02 -0.43476620278E+01 -0.87019281708E+03  0.88178273585E+03  0.12674609779E+03 0.  0.
          5    1    4    4  502    0  0.16815332769E+01  0.23618358002E+01 -0.31701748938E+03  0.31706558374E+03  0.47000000000E+01 0.  1.
         -5    1    4    4    0  502  0.63293684122E+02  0.19858262276E+01 -0.10972684136E+03  0.12677580081E+03  0.47000000000E+01 0.  1.
          5    1    5    5  503    0  0.32776404812E+02 -0.25117654133E+02 -0.21273416801E+03  0.21675586613E+03  0.47000000000E+01 0. -1.
         -5    1    5    5    0  503 -0.97751622211E+02  0.20769992105E+02 -0.65745864907E+03  0.66502686972E+03  0.47000000000E+01 0. -1.
<mgrwt>
<rscale>  0 0.27428697E+03</rscale>
<asrwt>0</asrwt>
<pdfrwt beam="1">  1        3 0.22066903E-02 0.27428697E+03</pdfrwt>
<pdfrwt beam="2">  1       -3 0.20173548E+00 0.27428697E+03</pdfrwt>
<totfact> 0.32275707E+02</totfact>
</mgrwt>
</event>
<event>
 9    1  0.2098759E-002  0.2758014E+03  0.7818608E-02  0.1098004E+00
          2   -1    0    0  501    0  0.00000000000E+00  0.00000000000E+00  0.13052347794E+04  0.13052347794E+04  0.00000000000E+00 0.  1.
         -2   -1    0    0    0  501 -0.00000000000E+00 -0.00000000000E+00 -0.14569493055E+02  0.14569493055E+02  0.00000000000E+00 0.  1.
         36    2    1    2    0    0  0.00000000000E+00  0.35527136788E-14  0.12906652863E+04  0.13198042724E+04  0.27580144345E+03 0.  0.
         25    2    3    3    0    0 -0.20811618640E+02 -0.15392493899E+02  0.90666213106E+03  0.91538216443E+03  0.12336220942E+03 0.  0.
         25    2    3    3    0    0  0.20811618640E+02  0.15392493899E+02  0.38400315523E+03  0.40442210798E+03  0.12421258331E+03 0.  0.
          5    1    4    4  502    0 -0.35819037494E+02  0.36039817841E+02  0.19091038541E+03  0.19761259366E+03  0.47000000000E+01 0. -1.
         -5    1    4    4    0  502  0.15007418854E+02 -0.51432311739E+02  0.71575174565E+03  0.71776957076E+03  0.47000000000E+01 0. -1.
          5    1    5    5  503    0 -0.44113021436E+02 -0.20077959368E+02  0.10505598514E+03  0.11579262984E+03  0.47000000000E+01 0. -1.
         -5    1    5    5    0  503  0.64924640076E+02  0.35470453267E+02  0.27894717010E+03  0.28862947813E+03  0.47000000000E+01 0. -1.
<mgrwt>
<rscale>  0 0.27580144E+03</rscale>
<asrwt>0</asrwt>
<pdfrwt beam="1">  1        2 0.20080526E+00 0.27580144E+03</pdfrwt>
<pdfrwt beam="2">  1       -2 0.22414615E-02 0.27580144E+03</pdfrwt>
<totfact> 0.11378789E+04</totfact>
</mgrwt>
</event>
<event>
 9    1  0.2098759E-002  0.2747210E+03  0.7818608E-02  0.1098608E+00
         -2   -1    0    0    0  501 -0.00000000000E+00  0.00000000000E+00  0.29306108378E+02  0.29306108378E+02  0.00000000000E+00 0.  1.
          2   -1    0    0  501    0  0.00000000000E+00 -0.00000000000E+00 -0.64382144758E+03  0.64382144758E+03  0.00000000000E+00 0.  1.
         36    2    1    2    0    0 -0.71054273576E-14  0.71054273576E-14 -0.61451533920E+03  0.67312755595E+03  0.27472095747E+03 0.  0.
         25    2    3    3    0    0  0.54546745065E+02 -0.49074121079E+02 -0.26494234956E+03  0.29622503413E+03  0.11032318659E+03 0.  0.
         25    2    3    3    0    0 -0.54546745065E+02  0.49074121079E+02 -0.34957298964E+03  0.37690252182E+03  0.12029388644E+03 0.  0.
          5    1    4    4  502    0  0.62097512544E+02 -0.78527133908E+02 -0.18217164026E+03  0.20792115895E+03  0.47000000000E+01 0.  1.
         -5    1    4    4    0  502 -0.75507674788E+01  0.29453012829E+02 -0.82770709293E+02  0.88303875175E+02  0.47000000000E+01 0.  1.
          5    1    5    5  503    0  0.38247542421E+00 -0.37086154686E+02 -0.72909584313E+02  0.81935502937E+02  0.47000000000E+01 0. -1.
         -5    1    5    5    0  503 -0.54929220489E+02  0.86160275765E+02 -0.27666340533E+03  0.29496701889E+03  0.47000000000E+01 0. -1.
<mgrwt>
<rscale>  0 0.27472096E+03</rscale>
<asrwt>0</asrwt>
<pdfrwt beam="1">  1        2 0.99049444E-01 0.27472096E+03</pdfrwt>
<pdfrwt beam="2">  1       -2 0.45086325E-02 0.27472096E+03</pdfrwt>
<totfact> 0.10591784E+04</totfact>
</mgrwt>
</event>
<event>
 9    1  0.2098759E-002  0.2771417E+03  0.7818608E-02  0.1097260E+00
         -1   -1    0    0    0  501 -0.00000000000E+00  0.00000000000E+00  0.21859975039E+02  0.21859975039E+02  0.00000000000E+00 0. -1.
          1   -1    0    0  501    0  0.00000000000E+00 -0.00000000000E+00 -0.87840388265E+03  0.87840388265E+03  0.00000000000E+00 0. -1.
         36    2    1    2    0    0 -0.71054273576E-14  0.00000000000E+00 -0.85654390761E+03  0.90026385769E+03  0.27714174676E+03 0.  0.
         25    2    3    3    0    0 -0.41267312283E+02  0.28713262263E+02 -0.64631258656E+03  0.65988614116E+03  0.12329767746E+03 0.  0.
         25    2    3    3    0    0  0.41267312283E+02 -0.28713262263E+02 -0.21023132105E+03  0.24037771652E+03  0.10515129936E+03 0.  0.
          5    1    4    4  502    0 -0.68965651089E+02  0.51297039488E+02 -0.31269329780E+03  0.32432520066E+03  0.47000000000E+01 0. -1.
         -5    1    4    4    0  502  0.27698338806E+02 -0.22583777225E+02 -0.33361928875E+03  0.33556094051E+03  0.47000000000E+01 0. -1.
          5    1    5    5  503    0  0.73737496336E+02 -0.30100913559E+02 -0.11770030600E+03  0.14219259965E+03  0.47000000000E+01 0. -1.
         -5    1    5    5    0  503 -0.32470184053E+02  0.13876512956E+01 -0.92531015050E+02  0.98185116869E+02  0.47000000000E+01 0. -1.
<mgrwt>
<rscale>  0 0.27714175E+03</rscale>
<asrwt>0</asrwt>
<pdfrwt beam="1">  1        1 0.13513906E+00 0.27714175E+03</pdfrwt>
<pdfrwt beam="2">  1       -1 0.33630731E-02 0.27714175E+03</pdfrwt>
<totfact> 0.63194300E+03</totfact>
</mgrwt>
</event>
<event>
 9    1  0.2098759E-002  0.2758920E+03  0.7818608E-02  0.1097954E+00
          3   -1    0    0  501    0  0.00000000000E+00  0.00000000000E+00  0.96948801280E+03  0.96948801280E+03  0.00000000000E+00 0. -1.
         -3   -1    0    0    0  501 -0.00000000000E+00 -0.00000000000E+00 -0.19627981550E+02  0.19627981550E+02  0.00000000000E+00 0. -1.
         36    2    1    2    0    0 -0.71054273576E-14  0.00000000000E+00  0.94986003125E+03  0.98911599435E+03  0.27589195587E+03 0.  0.
         25    2    3    3    0    0  0.55752423160E+02 -0.36781781865E+02  0.56989029080E+03  0.58624759690E+03  0.12020844046E+03 0.  0.
         25    2    3    3    0    0 -0.55752423160E+02  0.36781781865E+02  0.37996974044E+03  0.40286839745E+03  0.11603753635E+03 0.  0.
          5    1    4    4  502    0  0.82160505777E+02  0.26536237669E+01  0.44514864182E+03  0.45269945189E+03  0.47000000000E+01 0. -1.
         -5    1    4    4    0  502 -0.26408082618E+02 -0.39435405631E+02  0.12474164898E+03  0.13354814501E+03  0.47000000000E+01 0. -1.
          5    1    5    5  503    0 -0.24608826262E+02  0.31677953826E+02  0.27278875734E+02  0.48737194728E+02  0.47000000000E+01 0. -1.
         -5    1    5    5    0  503 -0.31143596897E+02  0.51038280384E+01  0.35269086471E+03  0.35413120272E+03  0.47000000000E+01 0. -1.
<mgrwt>
<rscale>  0 0.27589196E+03</rscale>
<asrwt>0</asrwt>
<pdfrwt beam="1">  1        3 0.14915196E+00 0.27589196E+03</pdfrwt>
<pdfrwt beam="2">  1       -3 0.30196902E-02 0.27589196E+03</pdfrwt>
<totfact> 0.44540432E+02</totfact>
</mgrwt>
</event>
<event>
 9    1  0.2098759E-002  0.2775128E+03  0.7818608E-02  0.1097055E+00
         -2   -1    0    0    0  501 -0.00000000000E+00  0.00000000000E+00  0.14455283880E+03  0.14455283880E+03  0.00000000000E+00 0.  1.
          2   -1    0    0  501    0  0.00000000000E+00 -0.00000000000E+00 -0.13319241499E+03  0.13319241499E+03  0.00000000000E+00 0.  1.
         36    2    1    2    0    0 -0.71054273576E-14  0.00000000000E+00  0.11360423809E+02  0.27774525379E+03  0.27751282272E+03 0.  0.
         25    2    3    3    0    0 -0.54306508822E+02 -0.18876368964E+02  0.14271745278E+02  0.13868013541E+03  0.12539131963E+03 0.  0.
         25    2    3    3    0    0  0.54306508822E+02  0.18876368964E+02 -0.29113214688E+01  0.13906511837E+03  0.12659035172E+03 0.  0.
          5    1    4    4  502    0 -0.19767692792E+02 -0.67760410074E+02 -0.14327555386E+02  0.72177584437E+02  0.47000000000E+01 0. -1.
         -5    1    4    4    0  502 -0.34538816030E+02  0.48884041110E+02  0.28599300664E+02  0.66502550977E+02  0.47000000000E+01 0. -1.
          5    1    5    5  503    0  0.63690113837E+02  0.43005147429E+02 -0.45183983878E+02  0.89272368093E+02  0.47000000000E+01 0. -1.
         -5    1    5    5    0  503 -0.93836050144E+01 -0.24128778465E+02  0.42272662409E+02  0.49792750280E+02  0.47000000000E+01 0. -1.
<mgrwt>
<rscale>  0 0.27751282E+03</rscale>
<asrwt>0</asrwt>
<pdfrwt beam="1">  1        2 0.20491141E-01 0.27751282E+03</pdfrwt>
<pdfrwt beam="2">  1       -2 0.22238898E-01 0.27751282E+03</pdfrwt>
<totfact> 0.46904969E+03</totfact>
</mgrwt>
</event>
<event>
 9    1  0.2098759E-002  0.2745211E+03  0.7818608E-02  0.1098720E+00
          1   -1    0    0  501    0  0.00000000000E+00  0.00000000000E+00  0.29665324029E+03  0.29665324029E+03  0.00000000000E+00 0.  1.
         -1   -1    0    0    0  501 -0.00000000000E+00 -0.00000000000E+00 -0.63510040447E+02  0.63510040447E+02  0.00000000000E+00 0.  1.
         36    2    1    2    0    0  0.35527136788E-14  0.00000000000E+00  0.23314319984E+03  0.36016328074E+03  0.27452110513E+03 0.  0.
         25    2    3    3    0    0 -0.24327995466E+02 -0.12477280388E+02  0.16341371339E+03  0.20873435918E+03  0.12695848569E+03 0.  0.
         25    2    3    3    0    0  0.24327995466E+02  0.12477280388E+02  0.69729486450E+02  0.15142892156E+03  0.13160920604E+03 0.  0.
          5    1    4    4  502    0 -0.52256021065E+02  0.33617639550E+02  0.40168458870E+02  0.74137928986E+02  0.47000000000E+01 0. -1.
         -5    1    4    4    0  502  0.27928025599E+02 -0.46094919938E+02  0.12324525453E+03  0.13459643019E+03  0.47000000000E+01 0. -1.
          5    1    5    5  503    0 -0.26774916961E+02  0.58926332301E+02  0.38855942555E+02  0.75637841644E+02  0.47000000000E+01 0. -1.
         -5    1    5    5    0  503  0.51102912426E+02 -0.46449051913E+02  0.30873543895E+02  0.75791079915E+02  0.47000000000E+01 0. -1.
<mgrwt>
<rscale>  0 0.27452111E+03</rscale>
<asrwt>0</asrwt>
<pdfrwt beam="1">  1        1 0.45638959E-01 0.27452111E+03</pdfrwt>
<pdfrwt beam="2">  1       -1 0.97707756E-02 0.27452111E+03</pdfrwt>
<totfact> 0.55788163E+03</totfact>
</mgrwt>
</event>
<event>
 9    1  0.2098759E-002  0.2749612E+03  0.7818608E-02  0.1098473E+00
         -2   -1    0    0    0  501 -0.00000000000E+00  0.00000000000E+00  0.16558292477E+02  0.16558292477E+02  0.00000000000E+00 0.  1.
          2   -1    0    0  501    0  0.00000000000E+00 -0.00000000000E+00 -0.11414771999E+04  0.11414771999E+04  0.00000000000E+00 0.  1.
         36    2    1    2    0    0  0.71054273576E-14  0.35527136788E-14 -0.11249189074E+04  0.11580354924E+04  0.27496118512E+03 0.  0.
         25    2    3    3    0    0  0.51506024029E+02 -0.17317044587E+01 -0.67809579571E+03  0.69132920228E+03  0.12436353346E+03 0.  0.
         25    2    3    3    0    0 -0.51506024029E+02  0.17317044587E+01 -0.44682311169E+03  0.46670629008E+03  0.12453111556E+03 0.  0.
          5    1    4    4  502    0 -0.32831834048E+02 -0.29321077829E+02 -0.27636460629E+03  0.27988772845E+03  0.47000000000E+01 0. -1.
         -5    1    4    4    0  502  0.84337858077E+02  0.27589373370E+02 -0.40173118942E+03  0.41144147382E+03  0.47000000000E+01 0. -1.
          5    1    5    5  503    0 -0.68423653839E+02  0.47830615002E+02 -0.24243666953E+03  0.25645115104E+03  0.47000000000E+01 0. -1.
         -5    1    5    5    0  503  0.16917629810E+02 -0.46098910543E+02 -0.20438644216E+03  0.21025513903E+03  0.47000000000E+01 0. -1.
<mgrwt>
<rscale>  0 0.27496119E+03</rscale>
<asrwt>0</asrwt>
<pdfrwt beam="1">  1        2 0.17561199E+00 0.27496119E+03</pdfrwt>
<pdfrwt beam="2">  1       -2 0.25474280E-02 0.27496119E+03</pdfrwt>
<totfact> 0.11653265E+04</totfact>
</mgrwt>
</event>
<event>
 9    1  0.2098759E-002  0.2751137E+03  0.7818608E-02  0.1098388E+00
          2   -1    0    0  501    0  0.00000000000E+00  0.00000000000E+00  0.34117110116E+04  0.34117110116E+04  0.00000000000E+00 0.  1.
         -2   -1    0    0    0  501 -0.00000000000E+00 -0.00000000000E+00 -0.55461570753E+01  0.55461570753E+01  0.00000000000E+00 0.  1.
         36    2    1    2    0    0 -0.35527136788E-14  0.71054273576E-14  0.34061648546E+04  0.34172571687E+04  0.27511368680E+03 0.  0.
         25    2    3    3    0    0 -0.10441210789E+02  0.15322454432E+02  0.23298518917E+04  0.23334575095E+04  0.12833672445E+03 0.  0.
         25    2    3    3    0    0  0.10441210789E+02 -0.15322454432E+02  0.10763129628E+04  0.10837996592E+04  0.12581061487E+03 0.  0.
          5    1    4    4  502    0  0.21242446507E+02  0.39675720993E+02  0.20712317769E+04  0.20717259877E+04  0.47000000000E+01 0.  1.
         -5    1    4    4    0  502 -0.31683657296E+02 -0.24353266561E+02  0.25862011481E+03  0.26173152182E+03  0.47000000000E+01 0.  1.
          5    1    5    5  503    0 -0.47967568641E+02 -0.39805267048E+02  0.46115401919E+03  0.46537132092E+03  0.47000000000E+01 0. -1.
         -5    1    5    5    0  503  0.58408779430E+02  0.24482812616E+02  0.61515894363E+03  0.61842833825E+03  0.47000000000E+01 0. -1.
<mgrwt>
<rscale>  0 0.27511369E+03</rscale>
<asrwt>0</asrwt>
<pdfrwt beam="1">  1        2 0.52487694E+00 0.27511369E+03</pdfrwt>
<pdfrwt beam="2">  1       -2 0.85325766E-03 0.27511369E+03</pdfrwt>
<totfact> 0.31104153E+03</totfact>
</mgrwt>
</event>
<event>
 9    1  0.2098759E-002  0.2785261E+03  0.7818608E-02  0.1096497E+00
          2   -1    0    0  501    0  0.00000000000E+00  0.00000000000E+00  0.60895881665E+02  0.60895881665E+02  0.00000000000E+00 0.  1.
         -2   -1    0    0    0  501 -0.00000000000E+00 -0.00000000000E+00 -0.31848122182E+03  0.31848122182E+03  0.00000000000E+00 0.  1.
         36    2    1    2    0    0  0.00000000000E+00 -0.14210854715E-13 -0.25758534016E+03  0.37937710349E+03  0.27852608350E+03 0.  0.
         25    2    3    3    0    0 -0.14224356497E+02  0.57601324186E+02 -0.14723321286E+03  0.20296592662E+03  0.12648044724E+03 0.  0.
         25    2    3    3    0    0  0.14224356497E+02 -0.57601324186E+02 -0.11035212730E+03  0.17641117687E+03  0.12418963910E+03 0.  0.
          5    1    4    4  502    0 -0.14677518501E+02  0.97215213614E+02 -0.11708341874E+03  0.15296027017E+03  0.47000000000E+01 0.  1.
         -5    1    4    4    0  502  0.45316200411E+00 -0.39613889428E+02 -0.30149794120E+02  0.50005656449E+02  0.47000000000E+01 0.  1.
          5    1    5    5  503    0  0.27530607042E+02 -0.67615732257E+02 -0.13065050523E+03  0.14973799147E+03  0.47000000000E+01 0.  1.
         -5    1    5    5    0  503 -0.13306250545E+02  0.10014408071E+02  0.20298377932E+02  0.26673185397E+02  0.47000000000E+01 0.  1.
<mgrwt>
<rscale>  0 0.27852608E+03</rscale>
<asrwt>0</asrwt>
<pdfrwt beam="1">  1        2 0.93685972E-02 0.27852608E+03</pdfrwt>
<pdfrwt beam="2">  1       -2 0.48997111E-01 0.27852608E+03</pdfrwt>
<totfact> 0.27743162E+03</totfact>
</mgrwt>
</event>
<event>
 9    1  0.2098759E-002  0.2763534E+03  0.7818608E-02  0.1097697E+00
         -4   -1    0    0    0  501 -0.00000000000E+00  0.00000000000E+00  0.94174337004E+01  0.94174337004E+01  0.00000000000E+00 0.  1.
          4   -1    0    0  501    0  0.00000000000E+00 -0.00000000000E+00 -0.20273887140E+04  0.20273887140E+04  0.00000000000E+00 0.  1.
         36    2    1    2    0    0 -0.71054273576E-14 -0.71054273576E-14 -0.20179712803E+04  0.20368061477E+04  0.27635338825E+03 0.  0.
         25    2    3    3    0    0 -0.29799406178E+02 -0.32375178464E+02 -0.71691660604E+03  0.72912131831E+03  0.12534879339E+03 0.  0.
         25    2    3    3    0    0  0.29799406178E+02  0.32375178464E+02 -0.13010546743E+04  0.13076848294E+04  0.12393623693E+03 0.  0.
          5    1    4    4  502    0 -0.20829526182E+02  0.21735151093E+02 -0.41600994791E+02  0.51565673870E+02  0.47000000000E+01 0. -1.
         -5    1    4    4    0  502 -0.89698799959E+01 -0.54110329557E+02 -0.67531561125E+03  0.67755564444E+03  0.47000000000E+01 0. -1.
          5    1    5    5  503    0  0.32249271961E+02  0.48685827944E+01 -0.12407936457E+04  0.12412311146E+04  0.47000000000E+01 0. -1.
         -5    1    5    5    0  503 -0.24498657824E+01  0.27506595670E+02 -0.60261028625E+02  0.66453714859E+02  0.47000000000E+01 0. -1.
<mgrwt>
<rscale>  0 0.27635339E+03</rscale>
<asrwt>0</asrwt>
<pdfrwt beam="1">  1        4 0.31190634E+00 0.27635339E+03</pdfrwt>
<pdfrwt beam="2">  1       -4 0.14488342E-02 0.27635339E+03</pdfrwt>
<totfact> 0.96213702E+01</totfact>
</mgrwt>
</event>
<event>
 9    1  0.2098759E-002  0.2756436E+03  0.7818608E-02  0.1098092E+00
          2   -1    0    0  501    0  0.00000000000E+00  0.00000000000E+00  0.11518298531E+04  0.11518298531E+04  0.00000000000E+00 0.  1.
         -2   -1    0    0    0  501 -0.00000000000E+00 -0.00000000000E+00 -0.16491018493E+02  0.16491018493E+02  0.00000000000E+00 0.  1.
         36    2    1    2    0    0  0.88817841970E-15 -0.14210854715E-13  0.11353388346E+04  0.11683208716E+04  0.27564359168E+03 0.  0.
         25    2    3    3    0    0  0.31170200147E+01 -0.42225357824E+02  0.72967902353E+03  0.74174017052E+03  0.12631035796E+03 0.  0.
         25    2    3    3    0    0 -0.31170200147E+01  0.42225357824E+02  0.40565981108E+03  0.42658070108E+03  0.12497405949E+03 0.  0.
          5    1    4    4  502    0  0.28377611752E+02  0.26691044661E+02  0.47597724496E+03  0.47759201044E+03  0.47000000000E+01 0. -1.
         -5    1    4    4    0  502 -0.25260591737E+02 -0.68916402485E+02  0.25370177857E+03  0.26414816008E+03  0.47000000000E+01 0. -1.
          5    1    5    5  503    0  0.28649534540E+00  0.52976541191E+02  0.41013535872E+03  0.41356946027E+03  0.47000000000E+01 0.  1.
         -5    1    5    5    0  503 -0.34035153601E+01 -0.10751183367E+02 -0.44755476395E+01  0.13011240804E+02  0.47000000000E+01 0.  1.
<mgrwt>
<rscale>  0 0.27564359E+03</rscale>
<asrwt>0</asrwt>
<pdfrwt beam="1">  1        2 0.17720453E+00 0.27564359E+03</pdfrwt>
<pdfrwt beam="2">  1       -2 0.25370807E-02 0.27564359E+03</pdfrwt>
<totfact> 0.11564170E+04</totfact>
</mgrwt>
</event>
<event>
 9    1  0.2098759E-002  0.2752150E+03  0.7818608E-02  0.1098332E+00
          2   -1    0    0  501    0  0.00000000000E+00  0.00000000000E+00  0.17123248523E+03  0.17123248523E+03  0.00000000000E+00 0. -1.
         -2   -1    0    0    0  501 -0.00000000000E+00 -0.00000000000E+00 -0.11058543095E+03  0.11058543095E+03  0.00000000000E+00 0. -1.
         36    2    1    2    0    0  0.88817841970E-15  0.71054273576E-14  0.60647054281E+02  0.28181791619E+03  0.27521495725E+03 0.  0.
         25    2    3    3    0    0 -0.48523579410E+01  0.42406023913E+02  0.57002452593E+02  0.14593246312E+03  0.12737812979E+03 0.  0.
         25    2    3    3    0    0  0.48523579410E+01 -0.42406023913E+02  0.36446016884E+01  0.13588545307E+03  0.12895641509E+03 0.  0.
          5    1    4    4  502    0 -0.96443182044E+01  0.74588581109E+01 -0.40279601413E+02  0.42346000141E+02  0.47000000000E+01 0. -1.
         -5    1    4    4    0  502  0.47919602634E+01  0.34947165802E+02  0.97282054006E+02  0.10358646298E+03  0.47000000000E+01 0. -1.
          5    1    5    5  503    0  0.93702153255E+01 -0.50195589406E+02 -0.55681399559E+02  0.75696145132E+02  0.47000000000E+01 0.  1.
         -5    1    5    5    0  503 -0.45178573845E+01  0.77895654928E+01  0.59326001247E+02  0.60189307937E+02  0.47000000000E+01 0.  1.
<mgrwt>
<rscale>  0 0.27521496E+03</rscale>
<asrwt>0</asrwt>
<pdfrwt beam="1">  1        2 0.26343459E-01 0.27521496E+03</pdfrwt>
<pdfrwt beam="2">  1       -2 0.17013143E-01 0.27521496E+03</pdfrwt>
<totfact> 0.55783275E+03</totfact>
</mgrwt>
</event>
<event>
 9    1  0.2098759E-002  0.2753788E+03  0.7818608E-02  0.1098240E+00
          2   -1    0    0  501    0  0.00000000000E+00  0.00000000000E+00  0.44570392023E+03  0.44570392023E+03  0.00000000000E+00 0.  1.
         -2   -1    0    0    0  501 -0.00000000000E+00 -0.00000000000E+00 -0.42535795838E+02  0.42535795838E+02  0.00000000000E+00 0.  1.
         36    2    1    2    0    0  0.71054273576E-14  0.00000000000E+00  0.40316812440E+03  0.48823971607E+03  0.27537880060E+03 0.  0.
         25    2    3    3    0    0 -0.30975324902E+02  0.52688619881E+02  0.22690565489E+03  0.26781298685E+03  0.12846033741E+03 0.  0.
         25    2    3    3    0    0  0.30975324902E+02 -0.52688619881E+02  0.17626246950E+03  0.22042672922E+03  0.11740495467E+03 0.  0.
          5    1    4    4  502    0 -0.77910341474E+02  0.26342871076E+02  0.97879209752E+02  0.12793122319E+03  0.47000000000E+01 0. -1.
         -5    1    4    4    0  502  0.46935016572E+02  0.26345748805E+02  0.12902644514E+03  0.13988176366E+03  0.47000000000E+01 0. -1.
          5    1    5    5  503    0  0.50724198480E+02 -0.81562022552E+02  0.13979036109E+03  0.16967245766E+03  0.47000000000E+01 0. -1.
         -5    1    5    5    0  503 -0.19748873577E+02  0.28873402671E+02  0.36472108415E+02  0.50754271560E+02  0.47000000000E+01 0. -1.
<mgrwt>
<rscale>  0 0.27537880E+03</rscale>
<asrwt>0</asrwt>
<pdfrwt beam="1">  1        2 0.68569831E-01 0.27537880E+03</pdfrwt>
<pdfrwt beam="2">  1       -2 0.65439689E-02 0.27537880E+03</pdfrwt>
<totfact> 0.91084048E+03</totfact>
</mgrwt>
</event>
<event>
 9    1  0.2098759E-002  0.2751867E+03  0.7818608E-02  0.1098347E+00
          1   -1    0    0  501    0  0.00000000000E+00  0.00000000000E+00  0.42221192850E+03  0.42221192850E+03  0.00000000000E+00 0. -1.
         -1   -1    0    0    0  501 -0.00000000000E+00 -0.00000000000E+00 -0.44839872756E+02  0.44839872756E+02  0.00000000000E+00 0. -1.
         36    2    1    2    0    0  0.35527136788E-14  0.00000000000E+00  0.37737205575E+03  0.46705180126E+03  0.27518669408E+03 0.  0.
         25    2    3    3    0    0 -0.17377548612E+02 -0.48051886490E+02  0.23934696582E+03  0.27521945312E+03  0.12588810244E+03 0.  0.
         25    2    3    3    0    0  0.17377548612E+02  0.48051886490E+02  0.13802508993E+03  0.19183234814E+03  0.12303561010E+03 0.  0.
          5    1    4    4  502    0 -0.45789702949E+02  0.27116803387E+02  0.73444511563E+02  0.90819624536E+02  0.47000000000E+01 0. -1.
         -5    1    4    4    0  502  0.28412154337E+02 -0.75168689876E+02  0.16590245426E+03  0.18439982858E+03  0.47000000000E+01 0. -1.
          5    1    5    5  503    0  0.59593849332E+01  0.82813459996E+02  0.51612384993E+02  0.97874980000E+02  0.47000000000E+01 0.  1.
         -5    1    5    5    0  503  0.11418163679E+02 -0.34761573506E+02  0.86412704933E+02  0.93957368143E+02  0.47000000000E+01 0.  1.
<mgrwt>
<rscale>  0 0.27518669E+03</rscale>
<asrwt>0</asrwt>
<pdfrwt beam="1">  1        1 0.64955679E-01 0.27518669E+03</pdfrwt>
<pdfrwt beam="2">  1       -1 0.68984422E-02 0.27518669E+03</pdfrwt>
<totfact> 0.60682557E+03</totfact>
</mgrwt>
</event>
<event>
 9    1  0.2098759E-002  0.2754974E+03  0.7818608E-02  0.1098174E+00
         -2   -1    0    0    0  501 -0.00000000000E+00  0.00000000000E+00  0.66965021448E+02  0.66965021448E+02  0.00000000000E+00 0. -1.
          2   -1    0    0  501    0  0.00000000000E+00 -0.00000000000E+00 -0.28335241353E+03  0.28335241353E+03  0.00000000000E+00 0. -1.
         36    2    1    2    0    0 -0.71054273576E-14  0.00000000000E+00 -0.21638739208E+03  0.35031743498E+03  0.27549737167E+03 0.  0.
         25    2    3    3    0    0 -0.48828474453E+02 -0.15054992961E+02 -0.84039913015E+02  0.16007577329E+03  0.12629597573E+03 0.  0.
         25    2    3    3    0    0  0.48828474453E+02  0.15054992961E+02 -0.13234747907E+03  0.19024166169E+03  0.12674841970E+03 0.  0.
          5    1    4    4  502    0 -0.59502147442E+02 -0.42955297523E+02 -0.10136068770E+03  0.12522676290E+03  0.47000000000E+01 0. -1.
         -5    1    4    4    0  502  0.10673672989E+02  0.27900304562E+02  0.17320774682E+02  0.34849010392E+02  0.47000000000E+01 0. -1.
          5    1    5    5  503    0  0.47802000010E+02 -0.51024446895E+02 -0.61414116243E+02  0.93178908878E+02  0.47000000000E+01 0. -1.
         -5    1    5    5    0  503  0.10264744431E+01  0.66079439856E+02 -0.70933362823E+02  0.97062752809E+02  0.47000000000E+01 0. -1.
<mgrwt>
<rscale>  0 0.27549737E+03</rscale>
<asrwt>0</asrwt>
<pdfrwt beam="1">  1        2 0.43592678E-01 0.27549737E+03</pdfrwt>
<pdfrwt beam="2">  1       -2 0.10302311E-01 0.27549737E+03</pdfrwt>
<totfact> 0.73058291E+03</totfact>
</mgrwt>
</event>
<event>
 9    1  0.2098759E-002  0.2753087E+03  0.7818608E-02  0.1098279E+00
          1   -1    0    0  501    0  0.00000000000E+00  0.00000000000E+00  0.60173589281E+03  0.60173589281E+03  0.00000000000E+00 0.  1.
         -1   -1    0    0    0  501 -0.00000000000E+00 -0.00000000000E+00 -0.31490100885E+02  0.31490100885E+02  0.00000000000E+00 0.  1.
         36    2    1    2    0    0  0.71054273576E-14  0.71054273576E-14  0.57024579193E+03  0.63322599370E+03  0.27530872831E+03 0.  0.
         25    2    3    3    0    0  0.52239712289E+02 -0.27446859407E+02  0.31288790027E+03  0.34229559503E+03  0.12563884198E+03 0.  0.
         25    2    3    3    0    0 -0.52239712289E+02  0.27446859407E+02  0.25735789166E+03  0.29093039866E+03  0.12216830537E+03 0.  0.
          5    1    4    4  502    0  0.77666198860E+02 -0.60323747774E+01  0.29312763957E+03  0.30333864092E+03  0.47000000000E+01 0. -1.
         -5    1    4    4    0  502 -0.25426486572E+02 -0.21414484629E+02  0.19760260695E+02  0.38956954117E+02  0.47000000000E+01 0. -1.
          5    1    5    5  503    0  0.64708186964E+01 -0.43062767054E+02  0.82359584983E+02  0.93281641493E+02  0.47000000000E+01 0. -1.
         -5    1    5    5    0  503 -0.58710530985E+02  0.70509626461E+02  0.17499830667E+03  0.19764875717E+03  0.47000000000E+01 0. -1.
<mgrwt>
<rscale>  0 0.27530873E+03</rscale>
<asrwt>0</asrwt>
<pdfrwt beam="1">  1        1 0.92574745E-01 0.27530873E+03</pdfrwt>
<pdfrwt beam="2">  1       -1 0.48446313E-02 0.27530873E+03</pdfrwt>
<totfact> 0.64414840E+03</totfact>
</mgrwt>
</event>
<event>
 9    1  0.2098759E-002  0.2731032E+03  0.7818608E-02  0.1099517E+00
          1   -1    0    0  501    0  0.00000000000E+00  0.00000000000E+00  0.11867721206E+03  0.11867721206E+03  0.00000000000E+00 0.  1.
         -1   -1    0    0    0  501 -0.00000000000E+00 -0.00000000000E+00 -0.15711808235E+03  0.15711808235E+03  0.00000000000E+00 0.  1.
         36    2    1    2    0    0  0.00000000000E+00 -0.53290705182E-14 -0.38440870289E+02  0.27579529441E+03  0.27310317448E+03 0.  0.
         25    2    3    3    0    0  0.45206774987E+02 -0.95213578546E+01  0.18050901855E+02  0.13387068884E+03  0.12434314422E+03 0.  0.
         25    2    3    3    0    0 -0.45206774987E+02  0.95213578546E+01 -0.56491772145E+02  0.14192460557E+03  0.12172495465E+03 0.  0.
          5    1    4    4  502    0 -0.20565113395E+02 -0.22398249635E+02  0.50596764157E+02  0.59217632668E+02  0.47000000000E+01 0.  1.
         -5    1    4    4    0  502  0.65771888382E+02  0.12876891781E+02 -0.32545862302E+02  0.74653056174E+02  0.47000000000E+01 0.  1.
          5    1    5    5  503    0 -0.71306847044E+01  0.49827876414E+02  0.13674537313E+02  0.52371241183E+02  0.47000000000E+01 0.  1.
         -5    1    5    5    0  503 -0.38076090282E+02 -0.40306518560E+02 -0.70166309458E+02  0.89553364384E+02  0.47000000000E+01 0.  1.
<mgrwt>
<rscale>  0 0.27310317E+03</rscale>
<asrwt>0</asrwt>
<pdfrwt beam="1">  1        1 0.18258033E-01 0.27310317E+03</pdfrwt>
<pdfrwt beam="2">  1       -1 0.24172013E-01 0.27310317E+03</pdfrwt>
<totfact> 0.42103780E+03</totfact>
</mgrwt>
</event>
<event>
 9    1  0.2098759E-002  0.2750530E+03  0.7818608E-02  0.1098422E+00
          2   -1    0    0  501    0  0.00000000000E+00  0.00000000000E+00  0.11176692228E+04  0.11176692228E+04  0.00000000000E+00 0. -1.
         -2   -1    0    0    0  501 -0.00000000000E+00 -0.00000000000E+00 -0.16922309412E+02  0.16922309412E+02  0.00000000000E+00 0. -1.
         36    2    1    2    0    0 -0.35527136788E-14  0.71054273576E-14  0.11007469134E+04  0.11345915323E+04  0.27505304513E+03 0.  0.
         25    2    3    3    0    0  0.15347179924E+02  0.43383723785E+02  0.51592638611E+03  0.53347247122E+03  0.12765249015E+03 0.  0.
         25    2    3    3    0    0 -0.15347179924E+02 -0.43383723785E+02  0.58482052732E+03  0.60111906104E+03  0.13119219849E+03 0.  0.
          5    1    4    4  502    0 -0.40757574822E+02  0.17369500119E+02  0.39561580813E+03  0.39811661242E+03  0.47000000000E+01 0. -1.
         -5    1    4    4    0  502  0.56104754746E+02  0.26014223666E+02  0.12031057798E+03  0.13535585880E+03  0.47000000000E+01 0. -1.
          5    1    5    5  503    0  0.36807213158E+01 -0.68986852021E+02  0.15120413289E+03  0.16630548176E+03  0.47000000000E+01 0. -1.
         -5    1    5    5    0  503 -0.19027901240E+02  0.25603128235E+02  0.43361639444E+03  0.43481357928E+03  0.47000000000E+01 0. -1.
<mgrwt>
<rscale>  0 0.27505305E+03</rscale>
<asrwt>0</asrwt>
<pdfrwt beam="1">  1        2 0.17194905E+00 0.27505305E+03</pdfrwt>
<pdfrwt beam="2">  1       -2 0.26034331E-02 0.27505305E+03</pdfrwt>
<totfact> 0.11649313E+04</totfact>
</mgrwt>
</event>
<event>
 9    1  0.2098759E-002  0.2744842E+03  0.7818608E-02  0.1098740E+00
          1   -1    0    0  501    0  0.00000000000E+00  0.00000000000E+00  0.48162592377E+02  0.48162592377E+02  0.00000000000E+00 0.  1.
         -1   -1    0    0    0  501 -0.00000000000E+00 -0.00000000000E+00 -0.39107922943E+03  0.39107922943E+03  0.00000000000E+00 0.  1.
         36    2    1    2    0    0  0.14210854715E-13 -0.71054273576E-14 -0.34291663705E+03  0.43924182181E+03  0.27448416722E+03 0.  0.
         25    2    3    3    0    0  0.49040013780E+02 -0.43009095344E+02 -0.21068285377E+03  0.25220600249E+03  0.12233518540E+03 0.  0.
         25    2    3    3    0    0 -0.49040013780E+02  0.43009095344E+02 -0.13223378328E+03  0.18703581931E+03  0.11507353749E+03 0.  0.
          5    1    4    4  502    0  0.88189445797E+02 -0.33200687210E+02 -0.11855501331E+03  0.15151582479E+03  0.47000000000E+01 0. -1.
         -5    1    4    4    0  502 -0.39149432017E+02 -0.98084081337E+01 -0.92127840467E+02  0.10069017771E+03  0.47000000000E+01 0. -1.
          5    1    5    5  503    0  0.26094446489E+02  0.50071587429E+02 -0.55877312806E+02  0.79576680577E+02  0.47000000000E+01 0.  1.
         -5    1    5    5    0  503 -0.75134460270E+02 -0.70624920854E+01 -0.76356470475E+02  0.10745913874E+03  0.47000000000E+01 0.  1.
<mgrwt>
<rscale>  0 0.27448417E+03</rscale>
<asrwt>0</asrwt>
<pdfrwt beam="1">  1        1 0.74096297E-02 0.27448417E+03</pdfrwt>
<pdfrwt beam="2">  1       -1 0.60166034E-01 0.27448417E+03</pdfrwt>
<totfact> 0.27834386E+03</totfact>
</mgrwt>
</event>
<event>
 9    1  0.2098759E-002  0.2767544E+03  0.7818608E-02  0.1097475E+00
         -2   -1    0    0    0  501 -0.00000000000E+00  0.00000000000E+00  0.14137440210E+02  0.14137440210E+02  0.00000000000E+00 0. -1.
          2   -1    0    0  501    0  0.00000000000E+00 -0.00000000000E+00 -0.13544356469E+04  0.13544356469E+04  0.00000000000E+00 0. -1.
         36    2    1    2    0    0  0.00000000000E+00  0.00000000000E+00 -0.13402982067E+04  0.13685730872E+04  0.27675442527E+03 0.  0.
         25    2    3    3    0    0  0.59997374549E+02 -0.12532056368E+00 -0.70899578775E+03  0.72228083111E+03  0.12415664007E+03 0.  0.
         25    2    3    3    0    0 -0.59997374549E+02  0.12532056368E+00 -0.63130241899E+03  0.64629225605E+03  0.12470459237E+03 0.  0.
          5    1    4    4  502    0  0.14670948277E+02 -0.59903731484E+02 -0.36088745451E+03  0.36614961231E+03  0.47000000000E+01 0. -1.
         -5    1    4    4    0  502  0.45326426273E+02  0.59778410921E+02 -0.34810833324E+03  0.35613121880E+03  0.47000000000E+01 0. -1.
          5    1    5    5  503    0 -0.45232551305E+02  0.60642936949E+02 -0.35926227141E+03  0.36717164809E+03  0.47000000000E+01 0. -1.
         -5    1    5    5    0  503 -0.14764823245E+02 -0.60517616385E+02 -0.27204014757E+03  0.27912060796E+03  0.47000000000E+01 0. -1.
<mgrwt>
<rscale>  0 0.27675443E+03</rscale>
<asrwt>0</asrwt>
<pdfrwt beam="1">  1        2 0.20837476E+00 0.27675443E+03</pdfrwt>
<pdfrwt beam="2">  1       -2 0.21749904E-02 0.27675443E+03</pdfrwt>
<totfact> 0.11177313E+04</totfact>
</mgrwt>
</event>
<event>
 9    1  0.2098759E-002  0.2735378E+03  0.7818608E-02  0.1099272E+00
         -2   -1    0    0    0  501 -0.00000000000E+00  0.00000000000E+00  0.17358711621E+02  0.17358711621E+02  0.00000000000E+00 0. -1.
          2   -1    0    0  501    0  0.00000000000E+00 -0.00000000000E+00 -0.10775993748E+04  0.10775993748E+04  0.00000000000E+00 0. -1.
         36    2    1    2    0    0  0.35527136788E-14  0.71054273576E-14 -0.10602406632E+04  0.10949580864E+04  0.27353783497E+03 0.  0.
         25    2    3    3    0    0  0.71852884322E+00  0.22749651625E+02 -0.74506286944E+03  0.75552619276E+03  0.12321966402E+03 0.  0.
         25    2    3    3    0    0 -0.71852884322E+00 -0.22749651625E+02 -0.31517779373E+03  0.33943189364E+03  0.12393105274E+03 0.  0.
          5    1    4    4  502    0 -0.80659044958E+01 -0.26439875479E+02 -0.40966853010E+02  0.49643719403E+02  0.47000000000E+01 0. -1.
         -5    1    4    4    0  502  0.87844333390E+01  0.49189527103E+02 -0.70409601643E+03  0.70588247336E+03  0.47000000000E+01 0. -1.
          5    1    5    5  503    0  0.20981507146E+02 -0.27703414498E+02 -0.31473071003E+03  0.31667840573E+03  0.47000000000E+01 0.  1.
         -5    1    5    5    0  503 -0.21700035990E+02  0.49537628735E+01 -0.44708369410E+00  0.22753487917E+02  0.47000000000E+01 0.  1.
<mgrwt>
<rscale>  0 0.27353783E+03</rscale>
<asrwt>0</asrwt>
<pdfrwt beam="1">  1        2 0.16578457E+00 0.27353783E+03</pdfrwt>
<pdfrwt beam="2">  1       -2 0.26705702E-02 0.27353783E+03</pdfrwt>
<totfact> 0.11841224E+04</totfact>
</mgrwt>
</event>
<event>
 9    1  0.2098759E-002  0.2736300E+03  0.7818608E-02  0.1099220E+00
          2   -1    0    0  501    0  0.00000000000E+00  0.00000000000E+00  0.24442555611E+04  0.24442555611E+04  0.00000000000E+00 0.  1.
         -2   -1    0    0    0  501 -0.00000000000E+00 -0.00000000000E+00 -0.76580934531E+01  0.76580934531E+01  0.00000000000E+00 0.  1.
         36    2    1    2    0    0  0.00000000000E+00  0.10658141036E-13  0.24365974677E+04  0.24519136546E+04  0.27362995092E+03 0.  0.
         25    2    3    3    0    0  0.39550178538E+02 -0.28775390719E+02  0.13767076551E+04  0.13828949288E+04  0.12117003209E+03 0.  0.
         25    2    3    3    0    0 -0.39550178538E+02  0.28775390719E+02  0.10598898126E+04  0.10690187258E+04  0.13054647295E+03 0.  0.
          5    1    4    4  502    0 -0.14575879947E+02  0.19296870466E+02  0.93070362681E+03  0.93102962167E+03  0.47000000000E+01 0.  1.
         -5    1    4    4    0  502  0.54126058485E+02 -0.48072261185E+02  0.44600402830E+03  0.45186530710E+03  0.47000000000E+01 0.  1.
          5    1    5    5  503    0 -0.38197845879E+01 -0.43453165178E+02  0.17350430055E+03  0.17896536153E+03  0.47000000000E+01 0.  1.
         -5    1    5    5    0  503 -0.35730393950E+02  0.72228555897E+02  0.88638551202E+03  0.89005336428E+03  0.47000000000E+01 0.  1.
<mgrwt>
<rscale>  0 0.27362995E+03</rscale>
<asrwt>0</asrwt>
<pdfrwt beam="1">  1        2 0.37603869E+00 0.27362995E+03</pdfrwt>
<pdfrwt beam="2">  1       -2 0.11781702E-02 0.27362995E+03</pdfrwt>
<totfact> 0.72243746E+03</totfact>
</mgrwt>
</event>
<event>
 9    1  0.2098759E-002  0.2751423E+03  0.7818608E-02  0.1098372E+00
          2   -1    0    0  501    0  0.00000000000E+00  0.00000000000E+00  0.18868163666E+03  0.18868163666E+03  0.00000000000E+00 0. -1.
         -2   -1    0    0    0  501 -0.00000000000E+00 -0.00000000000E+00 -0.10030559040E+03  0.10030559040E+03  0.00000000000E+00 0. -1.
         36    2    1    2    0    0  0.00000000000E+00  0.00000000000E+00  0.88376046261E+02  0.28898722707E+03  0.27514231200E+03 0.  0.
         25    2    3    3    0    0  0.17177169811E+02 -0.31638903929E+02  0.74229373706E+02  0.15008927141E+03  0.12538227174E+03 0.  0.
         25    2    3    3    0    0 -0.17177169811E+02  0.31638903929E+02  0.14146672555E+02  0.13889795566E+03  0.13340329208E+03 0.  0.
          5    1    4    4  502    0  0.34004608839E+02 -0.74689560967E+02  0.35238650199E+02  0.89435431500E+02  0.47000000000E+01 0. -1.
         -5    1    4    4    0  502 -0.16827439029E+02  0.43050657038E+02  0.38990723507E+02  0.60653839905E+02  0.47000000000E+01 0. -1.
          5    1    5    5  503    0 -0.43855605855E+02 -0.37609497303E+02  0.26126986303E+02  0.63580640651E+02  0.47000000000E+01 0. -1.
         -5    1    5    5    0  503  0.26678436044E+02  0.69248401232E+02 -0.11980313748E+02  0.75317315011E+02  0.47000000000E+01 0. -1.
<mgrwt>
<rscale>  0 0.27514231E+03</rscale>
<asrwt>0</asrwt>
<pdfrwt beam="1">  1        2 0.29027944E-01 0.27514231E+03</pdfrwt>
<pdfrwt beam="2">  1       -2 0.15431629E-01 0.27514231E+03</pdfrwt>
<totfact> 0.58953076E+03</totfact>
</mgrwt>
</event>
<event>
 9    1  0.2098759E-002  0.2743389E+03  0.7818608E-02  0.1098822E+00
          2   -1    0    0  501    0  0.00000000000E+00  0.00000000000E+00  0.10190581151E+04  0.10190581151E+04  0.00000000000E+00 0.  1.
         -2   -1    0    0    0  501 -0.00000000000E+00 -0.00000000000E+00 -0.18463576951E+02  0.18463576951E+02  0.00000000000E+00 0.  1.
         36    2    1    2    0    0 -0.35527136788E-14  0.00000000000E+00  0.10005945382E+04  0.10375216921E+04  0.27433889937E+03 0.  0.
         25    2    3    3    0    0  0.28994193749E+02  0.42291602629E+02  0.50134194059E+03  0.51980900077E+03  0.12739078838E+03 0.  0.
         25    2    3    3    0    0 -0.28994193749E+02 -0.42291602629E+02  0.49925259759E+03  0.51771269131E+03  0.12705916582E+03 0.  0.
          5    1    4    4  502    0  0.46225213133E+02 -0.15245566827E+02  0.77026490366E+02  0.91237973757E+02  0.47000000000E+01 0.  1.
         -5    1    4    4    0  502 -0.17231019384E+02  0.57537169456E+02  0.42431545023E+03  0.42857102702E+03  0.47000000000E+01 0.  1.
          5    1    5    5  503    0 -0.49156834526E+02 -0.13588464101E+01  0.68119693234E+02  0.84146440510E+02  0.47000000000E+01 0.  1.
         -5    1    5    5    0  503  0.20162640777E+02 -0.40932756219E+02  0.43113290436E+03  0.43356625080E+03  0.47000000000E+01 0.  1.
<mgrwt>
<rscale>  0 0.27433890E+03</rscale>
<asrwt>0</asrwt>
<pdfrwt beam="1">  1        2 0.15677813E+00 0.27433890E+03</pdfrwt>
<pdfrwt beam="2">  1       -2 0.28405511E-02 0.27433890E+03</pdfrwt>
<totfact> 0.11715624E+04</totfact>
</mgrwt>
</event>
<event>
 9    1  0.2098759E-002  0.2745721E+03  0.7818608E-02  0.1098691E+00
          4   -1    0    0  501    0  0.00000000000E+00  0.00000000000E+00  0.14986463340E+03  0.14986463340E+03  0.00000000000E+00 0. -1.
         -4   -1    0    0    0  501 -0.00000000000E+00 -0.00000000000E+00 -0.12576325718E+03  0.12576325718E+03  0.00000000000E+00 0. -1.
         36    2    1    2    0    0 -0.17763568394E-14 -0.71054273576E-14  0.24101376221E+02  0.27562789058E+03  0.27457213575E+03 0.  0.
         25    2    3    3    0    0  0.95043061441E+01  0.42464601724E+02  0.40580475622E+02  0.14180313434E+03  0.12871588741E+03 0.  0.
         25    2    3    3    0    0 -0.95043061441E+01 -0.42464601724E+02 -0.16479099401E+02  0.13382475625E+03  0.12547481991E+03 0.  0.
          5    1    4    4  502    0 -0.37505039235E+02  0.34485604337E+02  0.69148234299E+02  0.86020074292E+02  0.47000000000E+01 0. -1.
         -5    1    4    4    0  502  0.47009345379E+02  0.79789973872E+01 -0.28567758677E+02  0.55783060046E+02  0.47000000000E+01 0. -1.
          5    1    5    5  503    0 -0.77638561033E+00  0.27875438147E+02  0.35802562599E+02  0.45624076047E+02  0.47000000000E+01 0. -1.
         -5    1    5    5    0  503 -0.87279205338E+01 -0.70340039871E+02 -0.52281662000E+02  0.88200680198E+02  0.47000000000E+01 0. -1.
<mgrwt>
<rscale>  0 0.27457214E+03</rscale>
<asrwt>0</asrwt>
<pdfrwt beam="1">  1        4 0.23056097E-01 0.27457214E+03</pdfrwt>
<pdfrwt beam="2">  1       -4 0.19348193E-01 0.27457214E+03</pdfrwt>
<totfact> 0.78165995E+02</totfact>
</mgrwt>
</event>
<event>
 9    1  0.2098759E-002  0.2747800E+03  0.7818608E-02  0.1098575E+00
         -2   -1    0    0    0  501 -0.00000000000E+00  0.00000000000E+00  0.12269221088E+02  0.12269221088E+02  0.00000000000E+00 0. -1.
          2   -1    0    0  501    0  0.00000000000E+00 -0.00000000000E+00 -0.15384852209E+04  0.15384852209E+04  0.00000000000E+00 0. -1.
         36    2    1    2    0    0  0.14210854715E-13 -0.22204460493E-14 -0.15262159998E+04  0.15507544420E+04  0.27478002340E+03 0.  0.
         25    2    3    3    0    0 -0.46623644951E+02 -0.12145629133E+01 -0.94980900050E+03  0.95989848330E+03  0.13073913483E+03 0.  0.
         25    2    3    3    0    0  0.46623644951E+02  0.12145629133E+01 -0.57640699930E+03  0.59085595868E+03  0.12120435483E+03 0.  0.
          5    1    4    4  502    0 -0.48986665624E+02 -0.23763618730E+02 -0.14819516271E+03  0.15795030622E+03  0.47000000000E+01 0.  1.
         -5    1    4    4    0  502  0.23630206725E+01  0.22549055816E+02 -0.80161383779E+03  0.80194817708E+03  0.47000000000E+01 0.  1.
          5    1    5    5  503    0  0.83221765523E+02 -0.33071112753E+01 -0.28105590097E+03  0.29317453626E+03  0.47000000000E+01 0. -1.
         -5    1    5    5    0  503 -0.36598120571E+02  0.45216741886E+01 -0.29535109833E+03  0.29768142242E+03  0.47000000000E+01 0. -1.
<mgrwt>
<rscale>  0 0.27478002E+03</rscale>
<asrwt>0</asrwt>
<pdfrwt beam="1">  1        2 0.23668994E+00 0.27478002E+03</pdfrwt>
<pdfrwt beam="2">  1       -2 0.18875732E-02 0.27478002E+03</pdfrwt>
<totfact> 0.10953809E+04</totfact>
</mgrwt>
</event>
<event>
 9    1  0.2098759E-002  0.2790383E+03  0.7818608E-02  0.1096215E+00
          2   -1    0    0  501    0  0.00000000000E+00  0.00000000000E+00  0.19707284938E+04  0.19707284938E+04  0.00000000000E+00 0. -1.
         -2   -1    0    0    0  501 -0.00000000000E+00 -0.00000000000E+00 -0.98773561499E+01  0.98773561499E+01  0.00000000000E+00 0. -1.
         36    2    1    2    0    0 -0.35527136788E-14  0.00000000000E+00  0.19608511376E+04  0.19806058499E+04  0.27903825693E+03 0.  0.
         25    2    3    3    0    0  0.18132082056E+02  0.18590460064E+02  0.11293717050E+04  0.11361507075E+04  0.12117592355E+03 0.  0.
         25    2    3    3    0    0 -0.18132082056E+02 -0.18590460064E+02  0.83147943263E+03  0.84445514245E+03  0.14516219590E+03 0.  0.
          5    1    4    4  502    0  0.35110600670E+02  0.63388423858E+02  0.54811796123E+03  0.55290707717E+03  0.47000000000E+01 0.  1.
         -5    1    4    4    0  502 -0.16978518614E+02 -0.44797963794E+02  0.58125374375E+03  0.58324363030E+03  0.47000000000E+01 0.  1.
          5    1    5    5  503    0 -0.13192483754E+02 -0.55889099580E+02  0.77048248687E+03  0.77263379790E+03  0.47000000000E+01 0. -1.
         -5    1    5    5    0  503 -0.49395983026E+01  0.37298639516E+02  0.60996945754E+02  0.71821344546E+02  0.47000000000E+01 0. -1.
<mgrwt>
<rscale>  0 0.27903826E+03</rscale>
<asrwt>0</asrwt>
<pdfrwt beam="1">  1        2 0.30318869E+00 0.27903826E+03</pdfrwt>
<pdfrwt beam="2">  1       -2 0.15195948E-02 0.27903826E+03</pdfrwt>
<totfact> 0.89122816E+03</totfact>
</mgrwt>
</event>
<event>
 9    1  0.2098759E-002  0.2731315E+03  0.7818608E-02  0.1099501E+00
         -2   -1    0    0    0  501 -0.00000000000E+00  0.00000000000E+00  0.27031791533E+02  0.27031791533E+02  0.00000000000E+00 0. -1.
          2   -1    0    0  501    0  0.00000000000E+00 -0.00000000000E+00 -0.68993597804E+03  0.68993597804E+03  0.00000000000E+00 0. -1.
         36    2    1    2    0    0  0.00000000000E+00  0.00000000000E+00 -0.66290418651E+03  0.71696776957E+03  0.27313151066E+03 0.  0.
         25    2    3    3    0    0  0.27980719351E+02 -0.40850926359E+01 -0.21447174415E+03  0.25184911875E+03  0.12895829147E+03 0.  0.
         25    2    3    3    0    0 -0.27980719351E+02  0.40850926359E+01 -0.44843244236E+03  0.46511865082E+03  0.12018359017E+03 0.  0.
          5    1    4    4  502    0  0.40828813833E+02 -0.59698729301E+02 -0.14248477266E+03  0.15985909658E+03  0.47000000000E+01 0. -1.
         -5    1    4    4    0  502 -0.12848094482E+02  0.55613636665E+02 -0.71986971486E+02  0.91990022169E+02  0.47000000000E+01 0. -1.
          5    1    5    5  503    0 -0.62337573920E+02 -0.32070845786E+02 -0.31106170286E+03  0.31889807973E+03  0.47000000000E+01 0. -1.
         -5    1    5    5    0  503  0.34356854569E+02  0.36155938422E+02 -0.13737073950E+03  0.14622057109E+03  0.47000000000E+01 0. -1.
<mgrwt>
<rscale>  0 0.27313151E+03</rscale>
<asrwt>0</asrwt>
<pdfrwt beam="1">  1        2 0.10614399E+00 0.27313151E+03</pdfrwt>
<pdfrwt beam="2">  1       -2 0.41587373E-02 0.27313151E+03</pdfrwt>
<totfact> 0.11013334E+04</totfact>
</mgrwt>
</event>
<event>
 9    1  0.2098759E-002  0.2748042E+03  0.7818608E-02  0.1098561E+00
         -2   -1    0    0    0  501 -0.00000000000E+00  0.00000000000E+00  0.45391569759E+01  0.45391569759E+01  0.00000000000E+00 0.  1.
          2   -1    0    0  501    0  0.00000000000E+00 -0.00000000000E+00 -0.41592175629E+04  0.41592175629E+04  0.00000000000E+00 0.  1.
         36    2    1    2    0    0  0.71054273576E-14  0.71054273576E-14 -0.41546784059E+04  0.41637567198E+04  0.27480423152E+03 0.  0.
         25    2    3    3    0    0  0.42989588408E+02  0.28836471875E+02 -0.17444152312E+04  0.17497501637E+04  0.12633878966E+03 0.  0.
         25    2    3    3    0    0 -0.42989588408E+02 -0.28836471875E+02 -0.24102631747E+04  0.24140065562E+04  0.12401384968E+03 0.  0.
          5    1    4    4  502    0  0.75876442723E+02  0.49668646859E+02 -0.14332544475E+04  0.14361283405E+04  0.47000000000E+01 0.  1.
         -5    1    4    4    0  502 -0.32886854316E+02 -0.20832174984E+02 -0.31116078365E+03  0.31362182320E+03  0.47000000000E+01 0.  1.
          5    1    5    5  503    0  0.42656644038E+02 -0.10206855460E+02 -0.60180209642E+03  0.60341662426E+03  0.47000000000E+01 0. -1.
         -5    1    5    5    0  503 -0.85646232446E+02 -0.18629616415E+02 -0.18084610783E+04  0.18105899319E+04  0.47000000000E+01 0. -1.
<mgrwt>
<rscale>  0 0.27480423E+03</rscale>
<asrwt>0</asrwt>
<pdfrwt beam="1">  1        2 0.63987829E+00 0.27480423E+03</pdfrwt>
<pdfrwt beam="2">  1       -2 0.69833330E-03 0.27480423E+03</pdfrwt>
<totfact> 0.12020637E+03</totfact>
</mgrwt>
</event>
<event>
 9    1  0.2098759E-002  0.2754570E+03  0.7818608E-02  0.1098196E+00
          1   -1    0    0  501    0  0.00000000000E+00  0.00000000000E+00  0.77480948058E+03  0.77480948058E+03  0.00000000000E+00 0. -1.
         -1   -1    0    0    0  501 -0.00000000000E+00 -0.00000000000E+00 -0.24482320646E+02  0.24482320646E+02  0.00000000000E+00 0. -1.
         36    2    1    2    0    0  0.71054273576E-14  0.17763568394E-14  0.75032715994E+03  0.79929180123E+03  0.27545695956E+03 0.  0.
         25    2    3    3    0    0  0.52868735396E+02  0.40617915728E-01  0.48404395234E+03  0.50057937050E+03  0.11612946886E+03 0.  0.
         25    2    3    3    0    0 -0.52868735396E+02 -0.40617915728E-01  0.26628320760E+03  0.29871243073E+03  0.12460844592E+03 0.  0.
          5    1    4    4  502    0  0.23768309786E+02 -0.82781341758E+01  0.46232051290E+03  0.46302894802E+03  0.47000000000E+01 0.  1.
         -5    1    4    4    0  502  0.29100425611E+02  0.83187520916E+01  0.21723439439E+02  0.37550422476E+02  0.47000000000E+01 0.  1.
          5    1    5    5  503    0 -0.85062790751E+02  0.27987585501E+02  0.15008699690E+03  0.17483472181E+03  0.47000000000E+01 0. -1.
         -5    1    5    5    0  503  0.32194055355E+02 -0.28028203416E+02  0.11619621070E+03  0.12387770892E+03  0.47000000000E+01 0. -1.
<mgrwt>
<rscale>  0 0.27545696E+03</rscale>
<asrwt>0</asrwt>
<pdfrwt beam="1">  1        1 0.11920144E+00 0.27545696E+03</pdfrwt>
<pdfrwt beam="2">  1       -1 0.37665115E-02 0.27545696E+03</pdfrwt>
<totfact> 0.64986071E+03</totfact>
</mgrwt>
</event>
<event>
 9    1  0.2098759E-002  0.2747046E+03  0.7818608E-02  0.1098617E+00
         -1   -1    0    0    0  501 -0.00000000000E+00  0.00000000000E+00  0.32594298597E+02  0.32594298597E+02  0.00000000000E+00 0. -1.
          1   -1    0    0  501    0  0.00000000000E+00 -0.00000000000E+00 -0.57880216824E+03  0.57880216824E+03  0.00000000000E+00 0. -1.
         36    2    1    2    0    0  0.00000000000E+00  0.35527136788E-14 -0.54620786965E+03  0.61139646684E+03  0.27470457368E+03 0.  0.
         25    2    3    3    0    0  0.10332762568E+02 -0.41078616916E+01 -0.14685431786E+03  0.19249658256E+03  0.12395605315E+03 0.  0.
         25    2    3    3    0    0 -0.10332762568E+02  0.41078616916E+01 -0.39935355178E+03  0.41889988428E+03  0.12597703448E+03 0.  0.
          5    1    4    4  502    0  0.64968647224E+02 -0.48422205920E+01 -0.54421873913E+02  0.85018836634E+02  0.47000000000E+01 0.  1.
         -5    1    4    4    0  502 -0.54635884656E+02  0.73435890041E+00 -0.92432443950E+02  0.10747774593E+03  0.47000000000E+01 0.  1.
          5    1    5    5  503    0  0.17566456854E+02 -0.56356798355E+02 -0.16938853613E+03  0.17944145368E+03  0.47000000000E+01 0. -1.
         -5    1    5    5    0  503 -0.27899219422E+02  0.60464660046E+02 -0.22996501565E+03  0.23945843059E+03  0.47000000000E+01 0.  1.
<mgrwt>
<rscale>  0 0.27470457E+03</rscale>
<asrwt>0</asrwt>
<pdfrwt beam="1">  1        1 0.89046478E-01 0.27470457E+03</pdfrwt>
<pdfrwt beam="2">  1       -1 0.50145080E-02 0.27470457E+03</pdfrwt>
<totfact> 0.64546954E+03</totfact>
</mgrwt>
</event>
<event>
 9    1  0.2098759E-002  0.2755518E+03  0.7818608E-02  0.1098144E+00
         -1   -1    0    0    0  501 -0.00000000000E+00  0.00000000000E+00  0.75062765333E+01  0.75062765333E+01  0.00000000000E+00 0.  1.
          1   -1    0    0  501    0  0.00000000000E+00 -0.00000000000E+00 -0.25288436420E+04  0.25288436420E+04  0.00000000000E+00 0.  1.
         36    2    1    2    0    0  0.00000000000E+00  0.00000000000E+00 -0.25213373654E+04  0.25363499185E+04  0.27555180773E+03 0.  0.
         25    2    3    3    0    0  0.23742522891E+02 -0.53009039418E+01 -0.76494203734E+03  0.77535306633E+03  0.12427489688E+03 0.  0.
         25    2    3    3    0    0 -0.23742522891E+02  0.53009039418E+01 -0.17563953281E+04  0.17609968522E+04  0.12487416804E+03 0.  0.
          5    1    4    4  502    0 -0.34585529560E+02 -0.26806310218E+02 -0.54418566887E+03  0.54596233325E+03  0.47000000000E+01 0.  1.
         -5    1    4    4    0  502  0.58328052451E+02  0.21505406276E+02 -0.22075636847E+03  0.22939073308E+03  0.47000000000E+01 0.  1.
          5    1    5    5  503    0  0.17552480271E+02  0.27084035906E+02 -0.14992810591E+04  0.14996357620E+04  0.47000000000E+01 0. -1.
         -5    1    5    5    0  503 -0.41295003163E+02 -0.21783131964E+02 -0.25711426897E+03  0.26136109012E+03  0.47000000000E+01 0. -1.
<mgrwt>
<rscale>  0 0.27555181E+03</rscale>
<asrwt>0</asrwt>
<pdfrwt beam="1">  1        1 0.38905301E+00 0.27555181E+03</pdfrwt>
<pdfrwt beam="2">  1       -1 0.11548113E-02 0.27555181E+03</pdfrwt>
<totfact> 0.23161434E+03</totfact>
</mgrwt>
</event>
<event>
 9    1  0.2098759E-002  0.2735337E+03  0.7818608E-02  0.1099274E+00
         -1   -1    0    0    0  501 -0.00000000000E+00  0.00000000000E+00  0.10537911045E+02  0.10537911045E+02  0.00000000000E+00 0.  1.
          1   -1    0    0  501    0  0.00000000000E+00 -0.00000000000E+00 -0.17750357541E+04  0.17750357541E+04  0.00000000000E+00 0.  1.
         36    2    1    2    0    0  0.35527136788E-14 -0.71054273576E-14 -0.17644978431E+04  0.17855736652E+04  0.27353368259E+03 0.  0.
         25    2    3    3    0    0 -0.14299001345E+02  0.55792474203E+02 -0.84915462915E+03  0.85981897990E+03  0.12209763462E+03 0.  0.
         25    2    3    3    0    0  0.14299001345E+02 -0.55792474203E+02 -0.91534321393E+03  0.92575468527E+03  0.12590185219E+03 0.  0.
          5    1    4    4  502    0 -0.54263288168E+01  0.94456114376E+02 -0.62373096261E+03  0.63088335397E+03  0.47000000000E+01 0.  1.
         -5    1    4    4    0  502 -0.88726725280E+01 -0.38663640173E+02 -0.22542366653E+03  0.22893562593E+03  0.47000000000E+01 0.  1.
          5    1    5    5  503    0 -0.41392074872E+02 -0.67948276448E+02 -0.59945144421E+03  0.60472671191E+03  0.47000000000E+01 0.  1.
         -5    1    5    5    0  503  0.55691076217E+02  0.12155802244E+02 -0.31589176972E+03  0.32102797335E+03  0.47000000000E+01 0.  1.
<mgrwt>
<rscale>  0 0.27353368E+03</rscale>
<asrwt>0</asrwt>
<pdfrwt beam="1">  1        1 0.27308254E+00 0.27353368E+03</pdfrwt>
<pdfrwt beam="2">  1       -1 0.16212164E-02 0.27353368E+03</pdfrwt>
<totfact> 0.44020515E+03</totfact>
</mgrwt>
</event>
<event>
 9    1  0.2098759E-002  0.2754358E+03  0.7818608E-02  0.1098208E+00
         -1   -1    0    0    0  501 -0.00000000000E+00  0.00000000000E+00  0.22279598868E+03  0.22279598868E+03  0.00000000000E+00 0. -1.
          1   -1    0    0  501    0  0.00000000000E+00 -0.00000000000E+00 -0.85128179379E+02  0.85128179379E+02  0.00000000000E+00 0. -1.
         36    2    1    2    0    0 -0.71054273576E-14 -0.35527136788E-14  0.13766780930E+03  0.30792416806E+03  0.27543577756E+03 0.  0.
         25    2    3    3    0    0  0.13911140373E+02  0.16210319020E+02  0.52504313504E+01  0.12645511867E+03  0.12452724899E+03 0.  0.
         25    2    3    3    0    0 -0.13911140373E+02 -0.16210319020E+02  0.13241737795E+03  0.18146904939E+03  0.12223076386E+03 0.  0.
          5    1    4    4  502    0  0.57043699533E+02 -0.23506529310E+02 -0.16003195580E+02  0.63911914737E+02  0.47000000000E+01 0.  1.
         -5    1    4    4    0  502 -0.43132559159E+02  0.39716848329E+02  0.21253626930E+02  0.62543203936E+02  0.47000000000E+01 0.  1.
          5    1    5    5  503    0 -0.42248259775E+02 -0.42340908683E+02  0.12926427241E+03  0.14250968432E+03  0.47000000000E+01 0. -1.
         -5    1    5    5    0  503  0.28337119401E+02  0.26130589663E+02  0.31531055396E+01  0.38959365070E+02  0.47000000000E+01 0. -1.
<mgrwt>
<rscale>  0 0.27543578E+03</rscale>
<asrwt>0</asrwt>
<pdfrwt beam="1">  1        1 0.13096643E-01 0.27543578E+03</pdfrwt>
<pdfrwt beam="2">  1       -1 0.34276306E-01 0.27543578E+03</pdfrwt>
<totfact> 0.36026590E+03</totfact>
</mgrwt>
</event>
<event>
 9    1  0.2098759E-002  0.2760822E+03  0.7818608E-02  0.1097848E+00
         -2   -1    0    0    0  501 -0.00000000000E+00  0.00000000000E+00  0.34047318640E+02  0.34047318640E+02  0.00000000000E+00 0. -1.
          2   -1    0    0  501    0  0.00000000000E+00 -0.00000000000E+00 -0.55967258712E+03  0.55967258712E+03  0.00000000000E+00 0. -1.
         36    2    1    2    0    0  0.00000000000E+00 -0.35527136788E-14 -0.52562526848E+03  0.59371990576E+03  0.27608224070E+03 0.  0.
         25    2    3    3    0    0 -0.70962256316E+02  0.12355988498E+02 -0.29360789682E+03  0.32749052791E+03  0.12592115200E+03 0.  0.
         25    2    3    3    0    0  0.70962256316E+02 -0.12355988498E+02 -0.23201737166E+03  0.26622937785E+03  0.10889310633E+03 0.  0.
          5    1    4    4  502    0  0.47671565159E+01  0.54815510475E+02 -0.83568586005E+02  0.10016618460E+03  0.47000000000E+01 0. -1.
         -5    1    4    4    0  502 -0.75729412832E+02 -0.42459521977E+02 -0.21003931081E+03  0.22732434331E+03  0.47000000000E+01 0. -1.
          5    1    5    5  503    0 -0.16912261274E+02  0.28247927553E+02 -0.50671326819E+02  0.60610587804E+02  0.47000000000E+01 0.  1.
         -5    1    5    5    0  503  0.87874517591E+02 -0.40603916051E+02 -0.18134604484E+03  0.20561879004E+03  0.47000000000E+01 0.  1.
<mgrwt>
<rscale>  0 0.27608224E+03</rscale>
<asrwt>0</asrwt>
<pdfrwt beam="1">  1        2 0.86103468E-01 0.27608224E+03</pdfrwt>
<pdfrwt beam="2">  1       -2 0.52380494E-02 0.27608224E+03</pdfrwt>
<totfact> 0.99291302E+03</totfact>
</mgrwt>
</event>
<event>
 9    1  0.2098759E-002  0.2732840E+03  0.7818608E-02  0.1099415E+00
         -2   -1    0    0    0  501 -0.00000000000E+00  0.00000000000E+00  0.10481836202E+03  0.10481836202E+03  0.00000000000E+00 0. -1.
          2   -1    0    0  501    0  0.00000000000E+00 -0.00000000000E+00 -0.17812751833E+03  0.17812751833E+03  0.00000000000E+00 0. -1.
         36    2    1    2    0    0 -0.35527136788E-14  0.00000000000E+00 -0.73309156313E+02  0.28294588034E+03  0.27328398929E+03 0.  0.
         25    2    3    3    0    0  0.25707313503E+02 -0.35004725113E+02 -0.36278965629E+02  0.14551411060E+03  0.13405967435E+03 0.  0.
         25    2    3    3    0    0 -0.25707313503E+02  0.35004725113E+02 -0.37030190684E+02  0.13743176975E+03  0.12502023663E+03 0.  0.
          5    1    4    4  502    0  0.43044654410E+02 -0.77869045712E+01  0.41931692149E+02  0.60776927880E+02  0.47000000000E+01 0. -1.
         -5    1    4    4    0  502 -0.17337340908E+02 -0.27217820541E+02 -0.78210657778E+02  0.84737182717E+02  0.47000000000E+01 0. -1.
          5    1    5    5  503    0 -0.49946537198E+02 -0.32898129887E+02 -0.14082566075E+02  0.61622659756E+02  0.47000000000E+01 0. -1.
         -5    1    5    5    0  503  0.24239223695E+02  0.67902855000E+02 -0.22947624608E+02  0.75809109991E+02  0.47000000000E+01 0. -1.
<mgrwt>
<rscale>  0 0.27328399E+03</rscale>
<asrwt>0</asrwt>
<pdfrwt beam="1">  1        2 0.27404233E-01 0.27328399E+03</pdfrwt>
<pdfrwt beam="2">  1       -2 0.16125902E-01 0.27328399E+03</pdfrwt>
<totfact> 0.58375524E+03</totfact>
</mgrwt>
</event>
<event>
 9    1  0.2098759E-002  0.2849364E+03  0.7818608E-02  0.1093023E+00
          1   -1    0    0  501    0  0.00000000000E+00  0.00000000000E+00  0.72930013626E+02  0.72930013626E+02  0.00000000000E+00 0.  1.
         -1   -1    0    0    0  501 -0.00000000000E+00 -0.00000000000E+00 -0.27831052349E+03  0.27831052349E+03  0.00000000000E+00 0.  1.
         36    2    1    2    0    0  0.00000000000E+00  0.14210854715E-13 -0.20538050986E+03  0.35124053712E+03  0.28493641586E+03 0.  0.
         25    2    3    3    0    0 -0.14624812152E+02  0.60057961910E+02 -0.70872279649E+02  0.15659642004E+03  0.12521467497E+03 0.  0.
         25    2    3    3    0    0  0.14624812152E+02 -0.60057961910E+02 -0.13450823021E+03  0.19464411707E+03  0.12638443099E+03 0.  0.
          5    1    4    4  502    0  0.47103105887E+02  0.36143566186E+02 -0.67680950060E+02  0.90154650252E+02  0.47000000000E+01 0. -1.
         -5    1    4    4    0  502 -0.61727918040E+02  0.23914395724E+02 -0.31913295888E+01  0.66441769790E+02  0.47000000000E+01 0. -1.
          5    1    5    5  503    0  0.52412177797E+02 -0.68527685421E+02 -0.12898032659E+03  0.15524527271E+03  0.47000000000E+01 0. -1.
         -5    1    5    5    0  503 -0.37787365645E+02  0.84697235105E+01 -0.55279036199E+01  0.39398844363E+02  0.47000000000E+01 0. -1.
<mgrwt>
<rscale>  0 0.28493642E+03</rscale>
<asrwt>0</asrwt>
<pdfrwt beam="1">  1        1 0.11220002E-01 0.28493642E+03</pdfrwt>
<pdfrwt beam="2">  1       -1 0.42817003E-01 0.28493642E+03</pdfrwt>
<totfact> 0.29916208E+03</totfact>
</mgrwt>
</event>
<event>
 9    1  0.2098759E-002  0.2749850E+03  0.7818608E-02  0.1098460E+00
          2   -1    0    0  501    0  0.00000000000E+00  0.00000000000E+00  0.20440922990E+03  0.20440922990E+03  0.00000000000E+00 0.  1.
         -2   -1    0    0    0  501 -0.00000000000E+00 -0.00000000000E+00 -0.92482067758E+02  0.92482067758E+02  0.00000000000E+00 0.  1.
         36    2    1    2    0    0  0.14210854715E-13 -0.14210854715E-13  0.11192716215E+03  0.29689129766E+03  0.27498500505E+03 0.  0.
         25    2    3    3    0    0 -0.52847247180E+02  0.38882591748E+02  0.47808799945E+02  0.13832976271E+03  0.11200336792E+03 0.  0.
         25    2    3    3    0    0  0.52847247180E+02 -0.38882591748E+02  0.64118362202E+02  0.15856153495E+03  0.12932868405E+03 0.  0.
          5    1    4    4  502    0 -0.15534769691E+02 -0.18570202999E+02  0.63301933516E+02  0.67936781611E+02  0.47000000000E+01 0. -1.
         -5    1    4    4    0  502 -0.37312477489E+02  0.57452794747E+02 -0.15493133571E+02  0.70392981102E+02  0.47000000000E+01 0. -1.
          5    1    5    5  503    0 -0.35639453948E+02 -0.37378129720E+02  0.51553560239E+01  0.52114901466E+02  0.47000000000E+01 0. -1.
         -5    1    5    5    0  503  0.88486701128E+02 -0.15044620278E+01  0.58963006178E+02  0.10644663348E+03  0.47000000000E+01 0. -1.
<mgrwt>
<rscale>  0 0.27498501E+03</rscale>
<asrwt>0</asrwt>
<pdfrwt beam="1">  1        2 0.31447574E-01 0.27498501E+03</pdfrwt>
<pdfrwt beam="2">  1       -2 0.14228010E-01 0.27498501E+03</pdfrwt>
<totfact> 0.61737163E+03</totfact>
</mgrwt>
</event>
<event>
 9    1  0.2098759E-002  0.2742642E+03  0.7818608E-02  0.1098864E+00
         -2   -1    0    0    0  501 -0.00000000000E+00  0.00000000000E+00  0.21971145309E+02  0.21971145309E+02  0.00000000000E+00 0. -1.
          2   -1    0    0  501    0  0.00000000000E+00 -0.00000000000E+00 -0.85590500954E+03  0.85590500954E+03  0.00000000000E+00 0. -1.
         36    2    1    2    0    0  0.00000000000E+00  0.17763568394E-14 -0.83393386423E+03  0.87787615484E+03  0.27426420354E+03 0.  0.
         25    2    3    3    0    0 -0.26105616046E+02 -0.44996640325E+01 -0.60444619435E+03  0.61501572717E+03  0.11039652461E+03 0.  0.
         25    2    3    3    0    0  0.26105616046E+02  0.44996640325E+01 -0.22948766988E+03  0.26286042767E+03  0.12541636115E+03 0.  0.
          5    1    4    4  502    0  0.63650475487E+01 -0.53651790903E+02 -0.30761824190E+03  0.31236213158E+03  0.47000000000E+01 0. -1.
         -5    1    4    4    0  502 -0.32470663595E+02  0.49152126870E+02 -0.29682795245E+03  0.30265359559E+03  0.47000000000E+01 0. -1.
          5    1    5    5  503    0  0.50763190309E+02 -0.95804944223E+01 -0.22823157057E+03  0.23405218899E+03  0.47000000000E+01 0.  1.
         -5    1    5    5    0  503 -0.24657574263E+02  0.14080158455E+02 -0.12560993072E+01  0.28808238684E+02  0.47000000000E+01 0.  1.
<mgrwt>
<rscale>  0 0.27426420E+03</rscale>
<asrwt>0</asrwt>
<pdfrwt beam="1">  1        2 0.13167769E+00 0.27426420E+03</pdfrwt>
<pdfrwt beam="2">  1       -2 0.33801763E-02 0.27426420E+03</pdfrwt>
<totfact> 0.11469898E+04</totfact>
</mgrwt>
</event>
<event>
 9    1  0.2098759E-002  0.2786406E+03  0.7818608E-02  0.1096434E+00
         -1   -1    0    0    0  501 -0.00000000000E+00  0.00000000000E+00  0.38388505980E+03  0.38388505980E+03  0.00000000000E+00 0.  1.
          1   -1    0    0  501    0  0.00000000000E+00 -0.00000000000E+00 -0.50562380810E+02  0.50562380810E+02  0.00000000000E+00 0.  1.
         36    2    1    2    0    0  0.00000000000E+00  0.00000000000E+00  0.33332267899E+03  0.43444744061E+03  0.27864057552E+03 0.  0.
         25    2    3    3    0    0 -0.50464804084E+02  0.13140934702E+02  0.11844482610E+03  0.18025118476E+03  0.12546685683E+03 0.  0.
         25    2    3    3    0    0  0.50464804084E+02 -0.13140934702E+02  0.21487785290E+03  0.25419625585E+03  0.12539483325E+03 0.  0.
          5    1    4    4  502    0 -0.21243949108E+01  0.96788499636E+01 -0.25786867730E+02  0.28022236486E+02  0.47000000000E+01 0.  1.
         -5    1    4    4    0  502 -0.48340409173E+02  0.34620847382E+01  0.14423169383E+03  0.15222894828E+03  0.47000000000E+01 0.  1.
          5    1    5    5  503    0 -0.40797529700E+02 -0.11953679251E+02  0.51035394505E+02  0.66588515297E+02  0.47000000000E+01 0. -1.
         -5    1    5    5    0  503  0.91262333784E+02 -0.11872554510E+01  0.16384245839E+03  0.18760774055E+03  0.47000000000E+01 0. -1.
<mgrwt>
<rscale>  0 0.27864058E+03</rscale>
<asrwt>0</asrwt>
<pdfrwt beam="1">  1        1 0.77788281E-02 0.27864058E+03</pdfrwt>
<pdfrwt beam="2">  1       -1 0.59059238E-01 0.27864058E+03</pdfrwt>
<totfact> 0.27005494E+03</totfact>
</mgrwt>
</event>
<event>
 9    1  0.2098759E-002  0.2752087E+03  0.7818608E-02  0.1098335E+00
          2   -1    0    0  501    0  0.00000000000E+00  0.00000000000E+00  0.50010773443E+02  0.50010773443E+02  0.00000000000E+00 0.  1.
         -2   -1    0    0    0  501 -0.00000000000E+00 -0.00000000000E+00 -0.37861752825E+03  0.37861752825E+03  0.00000000000E+00 0.  1.
         36    2    1    2    0    0  0.00000000000E+00 -0.17763568394E-14 -0.32860675481E+03  0.42862830170E+03  0.27520868756E+03 0.  0.
         25    2    3    3    0    0 -0.21184219608E+01 -0.59008308155E+01 -0.23458868992E+03  0.26557500588E+03  0.12433391651E+03 0.  0.
         25    2    3    3    0    0  0.21184219608E+01  0.59008308155E+01 -0.94018064894E+02  0.16305329581E+03  0.13307018161E+03 0.  0.
          5    1    4    4  502    0  0.36893532842E+02  0.22280345484E+02 -0.24098742262E+02  0.49602277559E+02  0.47000000000E+01 0.  1.
         -5    1    4    4    0  502 -0.39011954803E+02 -0.28181176299E+02 -0.21048994765E+03  0.21597272832E+03  0.47000000000E+01 0.  1.
          5    1    5    5  503    0 -0.48486473604E+02  0.21811648442E+02  0.18286647042E+01  0.53405244545E+02  0.47000000000E+01 0. -1.
         -5    1    5    5    0  503  0.50604895565E+02 -0.15910817627E+02 -0.95846729598E+02  0.10964805127E+03  0.47000000000E+01 0. -1.
<mgrwt>
<rscale>  0 0.27520869E+03</rscale>
<asrwt>0</asrwt>
<pdfrwt beam="1">  1        2 0.76939650E-02 0.27520869E+03</pdfrwt>
<pdfrwt beam="2">  1       -2 0.58248852E-01 0.27520869E+03</pdfrwt>
<totfact> 0.25070488E+03</totfact>
</mgrwt>
</event>
<event>
 9    1  0.2098759E-002  0.2750446E+03  0.7818608E-02  0.1098427E+00
         -2   -1    0    0    0  501 -0.00000000000E+00  0.00000000000E+00  0.96375721964E+01  0.96375721964E+01  0.00000000000E+00 0.  1.
          2   -1    0    0  501    0  0.00000000000E+00 -0.00000000000E+00 -0.19623595662E+04  0.19623595662E+04  0.00000000000E+00 0.  1.
         36    2    1    2    0    0  0.00000000000E+00  0.00000000000E+00 -0.19527219940E+04  0.19719971384E+04  0.27504459271E+03 0.  0.
         25    2    3    3    0    0 -0.33254078620E+02  0.87032715700E+01 -0.69641625927E+03  0.70887778925E+03  0.12779097473E+03 0.  0.
         25    2    3    3    0    0  0.33254078620E+02 -0.87032715700E+01 -0.12563057347E+04  0.12631193492E+04  0.12643105000E+03 0.  0.
          5    1    4    4  502    0  0.30120303750E+02 -0.41141974477E+02 -0.29622214948E+03  0.30061528006E+03  0.47000000000E+01 0. -1.
         -5    1    4    4    0  502 -0.63374382370E+02  0.49845246047E+02 -0.40019410979E+03  0.40826250919E+03  0.47000000000E+01 0. -1.
          5    1    5    5  503    0 -0.35965451587E+02  0.30302035129E+02 -0.32498759673E+03  0.32840638707E+03  0.47000000000E+01 0. -1.
         -5    1    5    5    0  503  0.69219530207E+02 -0.39005306699E+02 -0.93131813801E+03  0.93471296209E+03  0.47000000000E+01 0. -1.
<mgrwt>
<rscale>  0 0.27504459E+03</rscale>
<asrwt>0</asrwt>
<pdfrwt beam="1">  1        2 0.30190169E+00 0.27504459E+03</pdfrwt>
<pdfrwt beam="2">  1       -2 0.14827023E-02 0.27504459E+03</pdfrwt>
<totfact> 0.93313692E+03</totfact>
</mgrwt>
</event>
<event>
 9    1  0.2098759E-002  0.2747338E+03  0.7818608E-02  0.1098600E+00
          2   -1    0    0  501    0  0.00000000000E+00  0.00000000000E+00  0.98406524979E+03  0.98406524979E+03  0.00000000000E+00 0. -1.
         -2   -1    0    0    0  501 -0.00000000000E+00 -0.00000000000E+00 -0.19175223939E+02  0.19175223939E+02  0.00000000000E+00 0. -1.
         36    2    1    2    0    0  0.00000000000E+00  0.00000000000E+00  0.96489002585E+03  0.10032404737E+04  0.27473384600E+03 0.  0.
         25    2    3    3    0    0  0.23870575934E+02  0.69796586222E+02  0.52027398652E+03  0.53492223942E+03  0.10007703702E+03 0.  0.
         25    2    3    3    0    0 -0.23870575934E+02 -0.69796586222E+02  0.44461603933E+03  0.46831823430E+03  0.12726813547E+03 0.  0.
          5    1    4    4  502    0  0.34931202359E+02  0.34629254660E+02  0.86960643194E+02  0.10001808657E+03  0.47000000000E+01 0. -1.
         -5    1    4    4    0  502 -0.11060626424E+02  0.35167331562E+02  0.43331334332E+03  0.43490415285E+03  0.47000000000E+01 0. -1.
          5    1    5    5  503    0 -0.53687216153E+02 -0.93108122524E+02  0.29804239210E+03  0.31686400418E+03  0.47000000000E+01 0. -1.
         -5    1    5    5    0  503  0.29816640219E+02  0.23311536302E+02  0.14657364723E+03  0.15145423012E+03  0.47000000000E+01 0. -1.
<mgrwt>
<rscale>  0 0.27473385E+03</rscale>
<asrwt>0</asrwt>
<pdfrwt beam="1">  1        2 0.15139461E+00 0.27473385E+03</pdfrwt>
<pdfrwt beam="2">  1       -2 0.29500352E-02 0.27473385E+03</pdfrwt>
<totfact> 0.11635674E+04</totfact>
</mgrwt>
</event>
<event>
 9    1  0.2098759E-002  0.2738485E+03  0.7818608E-02  0.1099097E+00
          1   -1    0    0  501    0  0.00000000000E+00  0.00000000000E+00  0.52452388130E+03  0.52452388130E+03  0.00000000000E+00 0. -1.
         -1   -1    0    0    0  501 -0.00000000000E+00 -0.00000000000E+00 -0.35743377122E+02  0.35743377122E+02  0.00000000000E+00 0. -1.
         36    2    1    2    0    0  0.35527136788E-14  0.00000000000E+00  0.48878050418E+03  0.56026725842E+03  0.27384853404E+03 0.  0.
         25    2    3    3    0    0  0.69594210675E+01  0.46260555229E+02  0.23648275665E+03  0.27012437019E+03  0.12187948419E+03 0.  0.
         25    2    3    3    0    0 -0.69594210675E+01 -0.46260555229E+02  0.25229774752E+03  0.29014288823E+03  0.13542625178E+03 0.  0.
          5    1    4    4  502    0  0.24326502367E+02  0.83506975991E+02  0.13651907373E+03  0.16194054850E+03  0.47000000000E+01 0. -1.
         -5    1    4    4    0  502 -0.17367081299E+02 -0.37246420762E+02  0.99963682927E+02  0.10818382170E+03  0.47000000000E+01 0. -1.
          5    1    5    5  503    0  0.43160254109E+02  0.24171519279E+02  0.51938378630E+02  0.71880143668E+02  0.47000000000E+01 0.  1.
         -5    1    5    5    0  503 -0.50119675177E+02 -0.70432074507E+02  0.20035936889E+03  0.21826274456E+03  0.47000000000E+01 0.  1.
<mgrwt>
<rscale>  0 0.27384853E+03</rscale>
<asrwt>0</asrwt>
<pdfrwt beam="1">  1        1 0.80695976E-01 0.27384853E+03</pdfrwt>
<pdfrwt beam="2">  1       -1 0.54989815E-02 0.27384853E+03</pdfrwt>
<totfact> 0.64240495E+03</totfact>
</mgrwt>
</event>
<event>
 9    1  0.2098759E-002  0.2745196E+03  0.7818608E-02  0.1098720E+00
         -1   -1    0    0    0  501 -0.00000000000E+00  0.00000000000E+00  0.16268003486E+03  0.16268003486E+03  0.00000000000E+00 0.  1.
          1   -1    0    0  501    0  0.00000000000E+00 -0.00000000000E+00 -0.11581173836E+03  0.11581173836E+03  0.00000000000E+00 0.  1.
         36    2    1    2    0    0  0.00000000000E+00  0.00000000000E+00  0.46868296503E+02  0.27849177322E+03  0.27451963597E+03 0.  0.
         25    2    3    3    0    0  0.33212620298E+02  0.44827582261E+02  0.19201013829E+02  0.13819023812E+03  0.12496108474E+03 0.  0.
         25    2    3    3    0    0 -0.33212620298E+02 -0.44827582261E+02  0.27667282674E+02  0.14030153510E+03  0.12572371273E+03 0.  0.
          5    1    4    4  502    0  0.27783032472E+02  0.27109042810E+02 -0.51663514565E+02  0.64792019822E+02  0.47000000000E+01 0. -1.
         -5    1    4    4    0  502  0.54295878268E+01  0.17718539451E+02  0.70864528394E+02  0.73398218294E+02  0.47000000000E+01 0. -1.
          5    1    5    5  503    0 -0.69546225925E+02  0.75017794112E+01  0.30283793757E+02  0.76368530162E+02  0.47000000000E+01 0. -1.
         -5    1    5    5    0  503  0.36333605626E+02 -0.52329361672E+02 -0.26165110833E+01  0.63933004943E+02  0.47000000000E+01 0. -1.
<mgrwt>
<rscale>  0 0.27451964E+03</rscale>
<asrwt>0</asrwt>
<pdfrwt beam="1">  1        1 0.17817190E-01 0.27451964E+03</pdfrwt>
<pdfrwt beam="2">  1       -1 0.25027698E-01 0.27451964E+03</pdfrwt>
<totfact> 0.41027544E+03</totfact>
</mgrwt>
</event>
<event>
 9    1  0.2098759E-002  0.2774347E+03  0.7818608E-02  0.1097098E+00
          1   -1    0    0  501    0  0.00000000000E+00  0.00000000000E+00  0.53110881166E+03  0.53110881166E+03  0.00000000000E+00 0.  1.
         -1   -1    0    0    0  501 -0.00000000000E+00 -0.00000000000E+00 -0.36230802036E+02  0.36230802036E+02  0.00000000000E+00 0.  1.
         36    2    1    2    0    0  0.00000000000E+00  0.00000000000E+00  0.49487800962E+03  0.56733961370E+03  0.27743466413E+03 0.  0.
         25    2    3    3    0    0 -0.27677958326E+02 -0.55400204884E+02  0.24213902465E+03  0.27889461093E+03  0.12375639244E+03 0.  0.
         25    2    3    3    0    0  0.27677958326E+02  0.55400204884E+02  0.25273898498E+03  0.28844500277E+03  0.12445189037E+03 0.  0.
          5    1    4    4  502    0 -0.26368675183E+02 -0.94099758470E+02  0.15316652727E+03  0.18174748045E+03  0.47000000000E+01 0. -1.
         -5    1    4    4    0  502 -0.13092831426E+01  0.38699553587E+02  0.88972497381E+02  0.97147130479E+02  0.47000000000E+01 0. -1.
          5    1    5    5  503    0 -0.30780821995E+02  0.62592768830E+02  0.18908057835E+03  0.20159084508E+03  0.47000000000E+01 0.  1.
         -5    1    5    5    0  503  0.58458780321E+02 -0.71925639461E+01  0.63658406631E+02  0.86854157687E+02  0.47000000000E+01 0.  1.
<mgrwt>
<rscale>  0 0.27743466E+03</rscale>
<asrwt>0</asrwt>
<pdfrwt beam="1">  1        1 0.81709042E-01 0.27743466E+03</pdfrwt>
<pdfrwt beam="2">  1       -1 0.55739699E-02 0.27743466E+03</pdfrwt>
<totfact> 0.61922748E+03</totfact>
</mgrwt>
</event>
<event>
 9    1  0.2098759E-002  0.2753097E+03  0.7818608E-02  0.1098279E+00
          2   -1    0    0  501    0  0.00000000000E+00  0.00000000000E+00  0.83508062608E+03  0.83508062608E+03  0.00000000000E+00 0.  1.
         -2   -1    0    0    0  501 -0.00000000000E+00 -0.00000000000E+00 -0.22691057620E+02  0.22691057620E+02  0.00000000000E+00 0.  1.
         36    2    1    2    0    0  0.35527136788E-14  0.71054273576E-14  0.81238956846E+03  0.85777168370E+03  0.27530973542E+03 0.  0.
         25    2    3    3    0    0 -0.12093904314E+02  0.24595290177E+02  0.54491687746E+03  0.55920319887E+03  0.12256681227E+03 0.  0.
         25    2    3    3    0    0  0.12093904314E+02 -0.24595290177E+02  0.26747269100E+03  0.29856848483E+03  0.12980873961E+03 0.  0.
          5    1    4    4  502    0  0.50649174979E+02  0.72743846641E+01  0.14147901575E+03  0.15052128585E+03  0.47000000000E+01 0.  1.
         -5    1    4    4    0  502 -0.62743079293E+02  0.17320905513E+02  0.40343786171E+03  0.40868191302E+03  0.47000000000E+01 0.  1.
          5    1    5    5  503    0  0.31553307163E+02  0.39647097255E+02  0.51683243949E+02  0.72531036245E+02  0.47000000000E+01 0.  1.
         -5    1    5    5    0  503 -0.19459402849E+02 -0.64242387432E+02  0.21578944705E+03  0.22603744858E+03  0.47000000000E+01 0.  1.
<mgrwt>
<rscale>  0 0.27530974E+03</rscale>
<asrwt>0</asrwt>
<pdfrwt beam="1">  1        2 0.12847392E+00 0.27530974E+03</pdfrwt>
<pdfrwt beam="2">  1       -2 0.34909326E-02 0.27530974E+03</pdfrwt>
<totfact> 0.11287738E+04</totfact>
</mgrwt>
</event>
<event>
 9    1  0.2098759E-002  0.2755719E+03  0.7818608E-02  0.1098132E+00
          4   -1    0    0  501    0  0.00000000000E+00  0.00000000000E+00  0.20685811533E+04  0.20685811533E+04  0.00000000000E+00 0.  1.
         -4   -1    0    0    0  501 -0.00000000000E+00 -0.00000000000E+00 -0.91777698474E+01  0.91777698474E+01  0.00000000000E+00 0.  1.
         36    2    1    2    0    0  0.71054273576E-14  0.00000000000E+00  0.20594033834E+04  0.20777589231E+04  0.27557185441E+03 0.  0.
         25    2    3    3    0    0  0.38630044095E+02 -0.44067234321E+02  0.11138233734E+04  0.11224214577E+04  0.12567107923E+03 0.  0.
         25    2    3    3    0    0 -0.38630044095E+02  0.44067234321E+02  0.94558001005E+03  0.95533746543E+03  0.12293866765E+03 0.  0.
          5    1    4    4  502    0  0.65023253078E+01  0.26020273874E+02  0.61395417464E+02  0.67162654597E+02  0.47000000000E+01 0.  1.
         -5    1    4    4    0  502  0.32127718788E+02 -0.70087508194E+02  0.10524279559E+04  0.10552588031E+04  0.47000000000E+01 0.  1.
          5    1    5    5  503    0 -0.27945800708E+02  0.13495665509E+02  0.49194680675E+02  0.58355011537E+02  0.47000000000E+01 0.  1.
         -5    1    5    5    0  503 -0.10684243387E+02  0.30571568812E+02  0.89638532938E+03  0.89698245390E+03  0.47000000000E+01 0.  1.
<mgrwt>
<rscale>  0 0.27557185E+03</rscale>
<asrwt>0</asrwt>
<pdfrwt beam="1">  1        4 0.31824288E+00 0.27557185E+03</pdfrwt>
<pdfrwt beam="2">  1       -4 0.14119662E-02 0.27557185E+03</pdfrwt>
<totfact> 0.91695582E+01</totfact>
</mgrwt>
</event>
<event>
 9    1  0.2098759E-002  0.2752862E+03  0.7818608E-02  0.1098292E+00
         -3   -1    0    0    0  501 -0.00000000000E+00  0.00000000000E+00  0.87269960844E+02  0.87269960844E+02  0.00000000000E+00 0.  1.
          3   -1    0    0  501    0  0.00000000000E+00 -0.00000000000E+00 -0.21709215444E+03  0.21709215444E+03  0.00000000000E+00 0.  1.
         36    2    1    2    0    0  0.00000000000E+00  0.00000000000E+00 -0.12982219360E+03  0.30436211529E+03  0.27528620611E+03 0.  0.
         25    2    3    3    0    0 -0.56956883343E+02  0.81036119151E+01 -0.51934903196E+02  0.14569344901E+03  0.12336770983E+03 0.  0.
         25    2    3    3    0    0  0.56956883343E+02 -0.81036119151E+01 -0.77887290405E+02  0.15866866628E+03  0.12569630291E+03 0.  0.
          5    1    4    4  502    0  0.22485911142E+02 -0.36876815874E+02 -0.76396272377E+01  0.44113146037E+02  0.47000000000E+01 0.  1.
         -5    1    4    4    0  502 -0.79442794485E+02  0.44980427789E+02 -0.44295275958E+02  0.10158030297E+03  0.47000000000E+01 0.  1.
          5    1    5    5  503    0  0.72399817373E+02 -0.28938091938E+02 -0.98139825921E+02  0.12542990932E+03  0.47000000000E+01 0. -1.
         -5    1    5    5    0  503 -0.15442934030E+02  0.20834480023E+02  0.20252535516E+02  0.33238756958E+02  0.47000000000E+01 0. -1.
<mgrwt>
<rscale>  0 0.27528621E+03</rscale>
<asrwt>0</asrwt>
<pdfrwt beam="1">  1        3 0.33398793E-01 0.27528621E+03</pdfrwt>
<pdfrwt beam="2">  1       -3 0.13426148E-01 0.27528621E+03</pdfrwt>
<totfact> 0.10022178E+03</totfact>
</mgrwt>
</event>
<event>
 9    1  0.2098759E-002  0.2703064E+03  0.7818608E-02  0.1101104E+00
          1   -1    0    0  501    0  0.00000000000E+00  0.00000000000E+00  0.12982180342E+03  0.12982180342E+03  0.00000000000E+00 0. -1.
         -1   -1    0    0    0  501 -0.00000000000E+00 -0.00000000000E+00 -0.14070356858E+03  0.14070356858E+03  0.00000000000E+00 0. -1.
         36    2    1    2    0    0  0.00000000000E+00  0.35527136788E-14 -0.10881765159E+02  0.27052537201E+03  0.27030642628E+03 0.  0.
         25    2    3    3    0    0  0.25254163636E+02 -0.28213541199E+02  0.19656382121E+02  0.13620782226E+03  0.12935385884E+03 0.  0.
         25    2    3    3    0    0 -0.25254163636E+02  0.28213541199E+02 -0.30538147280E+02  0.13431754975E+03  0.12519923739E+03 0.  0.
          5    1    4    4  502    0  0.44322648050E+02 -0.15602934534E+02 -0.46366700189E+02  0.66180885326E+02  0.47000000000E+01 0. -1.
         -5    1    4    4    0  502 -0.19068484413E+02 -0.12610606665E+02  0.66023082309E+02  0.70026936931E+02  0.47000000000E+01 0. -1.
          5    1    5    5  503    0  0.40370768259E+02 -0.16993067646E+02  0.94192008289E+01  0.45048580689E+02  0.47000000000E+01 0.  1.
         -5    1    5    5    0  503 -0.65624931895E+02  0.45206608845E+02 -0.39957348109E+02  0.89268969062E+02  0.47000000000E+01 0.  1.
<mgrwt>
<rscale>  0 0.27030643E+03</rscale>
<asrwt>0</asrwt>
<pdfrwt beam="1">  1        1 0.19972585E-01 0.27030643E+03</pdfrwt>
<pdfrwt beam="2">  1       -1 0.21646703E-01 0.27030643E+03</pdfrwt>
<totfact> 0.44952321E+03</totfact>
</mgrwt>
</event>
<event>
 9    1  0.2098759E-002  0.2735559E+03  0.7818608E-02  0.1099262E+00
         -2   -1    0    0    0  501 -0.00000000000E+00  0.00000000000E+00  0.15205015505E+02  0.15205015505E+02  0.00000000000E+00 0.  1.
          2   -1    0    0  501    0  0.00000000000E+00 -0.00000000000E+00 -0.12303972333E+04  0.12303972333E+04  0.00000000000E+00 0.  1.
         36    2    1    2    0    0  0.00000000000E+00  0.71054273576E-14 -0.12151922178E+04  0.12456022489E+04  0.27355591027E+03 0.  0.
         25    2    3    3    0    0 -0.68527056738E+01 -0.57853310603E+02 -0.57913317024E+03  0.59480513594E+03  0.12249063532E+03 0.  0.
         25    2    3    3    0    0  0.68527056738E+01  0.57853310603E+02 -0.63605904760E+03  0.65079711291E+03  0.12478703867E+03 0.  0.
          5    1    4    4  502    0  0.52304152028E+02 -0.45506237437E+02 -0.39165986115E+03  0.39777641811E+03  0.47000000000E+01 0.  1.
         -5    1    4    4    0  502 -0.59156857702E+02 -0.12347073166E+02 -0.18747330909E+03  0.19702871783E+03  0.47000000000E+01 0.  1.
          5    1    5    5  503    0 -0.35078688535E+02  0.15431000336E+02 -0.58160976617E+02  0.69809880116E+02  0.47000000000E+01 0. -1.
         -5    1    5    5    0  503  0.41931394209E+02  0.42422310267E+02 -0.57789807098E+03  0.58098723280E+03  0.47000000000E+01 0. -1.
<mgrwt>
<rscale>  0 0.27355591E+03</rscale>
<asrwt>0</asrwt>
<pdfrwt beam="1">  1        2 0.18929191E+00 0.27355591E+03</pdfrwt>
<pdfrwt beam="2">  1       -2 0.23392328E-02 0.27355591E+03</pdfrwt>
<totfact> 0.11759638E+04</totfact>
</mgrwt>
</event>
<event>
 9    1  0.2098759E-002  0.2749469E+03  0.7818608E-02  0.1098481E+00
          1   -1    0    0  501    0  0.00000000000E+00  0.00000000000E+00  0.80425863262E+03  0.80425863262E+03  0.00000000000E+00 0.  1.
         -1   -1    0    0    0  501 -0.00000000000E+00 -0.00000000000E+00 -0.23498603040E+02  0.23498603040E+02  0.00000000000E+00 0.  1.
         36    2    1    2    0    0  0.71054273576E-14  0.00000000000E+00  0.78076002958E+03  0.82775723566E+03  0.27494693560E+03 0.  0.
         25    2    3    3    0    0 -0.38650216714E+02  0.12962724474E+02  0.35752386583E+03  0.38481884710E+03  0.13638313299E+03 0.  0.
         25    2    3    3    0    0  0.38650216714E+02 -0.12962724474E+02  0.42323616375E+03  0.44293838856E+03  0.12411162025E+03 0.  0.
          5    1    4    4  502    0 -0.31374577643E+02  0.37988719836E+02  0.33615643558E+02  0.59829829089E+02  0.47000000000E+01 0. -1.
         -5    1    4    4    0  502 -0.72756390706E+01 -0.25025995362E+02  0.32390822228E+03  0.32498901801E+03  0.47000000000E+01 0. -1.
          5    1    5    5  503    0  0.37293335359E+02 -0.52107796668E+02  0.11126988668E+03  0.12848771544E+03  0.47000000000E+01 0.  1.
         -5    1    5    5    0  503  0.13568813542E+01  0.39145072194E+02  0.31196627706E+03  0.31445067313E+03  0.47000000000E+01 0.  1.
<mgrwt>
<rscale>  0 0.27494694E+03</rscale>
<asrwt>0</asrwt>
<pdfrwt beam="1">  1        1 0.12373208E+00 0.27494694E+03</pdfrwt>
<pdfrwt beam="2">  1       -1 0.36151703E-02 0.27494694E+03</pdfrwt>
<totfact> 0.65225373E+03</totfact>
</mgrwt>
</event>
<event>
 9    1  0.2098759E-002  0.2753832E+03  0.7818608E-02  0.1098238E+00
         -2   -1    0    0    0  501 -0.00000000000E+00  0.00000000000E+00  0.11028278688E+02  0.11028278688E+02  0.00000000000E+00 0.  1.
          2   -1    0    0  501    0  0.00000000000E+00 -0.00000000000E+00 -0.17191239793E+04  0.17191239793E+04  0.00000000000E+00 0.  1.
         36    2    1    2    0    0 -0.35527136788E-14  0.00000000000E+00 -0.17080957006E+04  0.17301522580E+04  0.27538321186E+03 0.  0.
         25    2    3    3    0    0 -0.14089546603E+02  0.63691453125E+02 -0.85026728831E+03  0.86044879839E+03  0.11472818554E+03 0.  0.
         25    2    3    3    0    0  0.14089546603E+02 -0.63691453125E+02 -0.85782841227E+03  0.86970345957E+03  0.12751237649E+03 0.  0.
          5    1    4    4  502    0 -0.32602363266E+02  0.86708000233E+02 -0.47369693318E+03  0.48269251692E+03  0.47000000000E+01 0. -1.
         -5    1    4    4    0  502  0.18512816663E+02 -0.23016547108E+02 -0.37657035513E+03  0.37775628146E+03  0.47000000000E+01 0. -1.
          5    1    5    5  503    0 -0.37983016917E+02  0.89041660417E+01 -0.47225862176E+03  0.47389058819E+03  0.47000000000E+01 0.  1.
         -5    1    5    5    0  503  0.52072563519E+02 -0.72595619167E+02 -0.38556979051E+03  0.39581287138E+03  0.47000000000E+01 0.  1.
<mgrwt>
<rscale>  0 0.27538321E+03</rscale>
<asrwt>0</asrwt>
<pdfrwt beam="1">  1        2 0.26448062E+00 0.27538321E+03</pdfrwt>
<pdfrwt beam="2">  1       -2 0.16966582E-02 0.27538321E+03</pdfrwt>
<totfact> 0.10279621E+04</totfact>
</mgrwt>
</event>
<event>
 9    1  0.2098759E-002  0.2755357E+03  0.7818608E-02  0.1098153E+00
          2   -1    0    0  501    0  0.00000000000E+00  0.00000000000E+00  0.49065760868E+03  0.49065760868E+03  0.00000000000E+00 0. -1.
         -2   -1    0    0    0  501 -0.00000000000E+00 -0.00000000000E+00 -0.38682750449E+02  0.38682750449E+02  0.00000000000E+00 0. -1.
         36    2    1    2    0    0  0.00000000000E+00  0.00000000000E+00  0.45197485824E+03  0.52934035913E+03  0.27553573875E+03 0.  0.
         25    2    3    3    0    0  0.16814407321E+02  0.23603723811E+02  0.12492183706E+03  0.17899021221E+03  0.12486861343E+03 0.  0.
         25    2    3    3    0    0 -0.16814407321E+02 -0.23603723811E+02  0.32705302118E+03  0.35035014693E+03  0.12223619234E+03 0.  0.
          5    1    4    4  502    0 -0.21126652645E+02  0.23044146232E+02  0.13564456900E+03  0.13927995989E+03  0.47000000000E+01 0.  1.
         -5    1    4    4    0  502  0.37941059966E+02  0.55957757913E+00 -0.10722731947E+02  0.39710252314E+02  0.47000000000E+01 0.  1.
          5    1    5    5  503    0  0.27747262864E+01  0.22132189438E+01 -0.10056316475E+02  0.11654052733E+02  0.47000000000E+01 0. -1.
         -5    1    5    5    0  503 -0.19589133607E+02 -0.25816942755E+02  0.33710933765E+03  0.33869609419E+03  0.47000000000E+01 0. -1.
<mgrwt>
<rscale>  0 0.27553574E+03</rscale>
<asrwt>0</asrwt>
<pdfrwt beam="1">  1        2 0.75485781E-01 0.27553574E+03</pdfrwt>
<pdfrwt beam="2">  1       -2 0.59511927E-02 0.27553574E+03</pdfrwt>
<totfact> 0.94768168E+03</totfact>
</mgrwt>
</event>
<event>
 9    1  0.2098759E-002  0.2747127E+03  0.7818608E-02  0.1098612E+00
         -2   -1    0    0    0  501 -0.00000000000E+00  0.00000000000E+00  0.24355158326E+02  0.24355158326E+02  0.00000000000E+00 0. -1.
          2   -1    0    0  501    0  0.00000000000E+00 -0.00000000000E+00 -0.77465166579E+03  0.77465166579E+03  0.00000000000E+00 0. -1.
         36    2    1    2    0    0  0.00000000000E+00 -0.17763568394E-14 -0.75029650747E+03  0.79900682412E+03  0.27471267876E+03 0.  0.
         25    2    3    3    0    0 -0.89137597808E+01 -0.89833183104E+01 -0.53552848603E+03  0.54962917651E+03  0.12305005972E+03 0.  0.
         25    2    3    3    0    0  0.89137597808E+01  0.89833183104E+01 -0.21476802143E+03  0.24937764761E+03  0.12611008276E+03 0.  0.
          5    1    4    4  502    0 -0.57616830607E+02 -0.20274558984E+01 -0.42012920118E+03  0.42409249632E+03  0.47000000000E+01 0. -1.
         -5    1    4    4    0  502  0.48703070826E+02 -0.69558624120E+01 -0.11539928485E+03  0.12553668019E+03  0.47000000000E+01 0. -1.
          5    1    5    5  503    0 -0.28234056595E+02  0.51801562806E+02 -0.15925790903E+03  0.16989919203E+03  0.47000000000E+01 0.  1.
         -5    1    5    5    0  503  0.37147816376E+02 -0.42818244495E+02 -0.55510112398E+02  0.79478455582E+02  0.47000000000E+01 0.  1.
<mgrwt>
<rscale>  0 0.27471268E+03</rscale>
<asrwt>0</asrwt>
<pdfrwt beam="1">  1        2 0.11917716E+00 0.27471268E+03</pdfrwt>
<pdfrwt beam="2">  1       -2 0.37469479E-02 0.27471268E+03</pdfrwt>
<totfact> 0.11172378E+04</totfact>
</mgrwt>
</event>
<event>
 9    1  0.2098759E-002  0.2737410E+03  0.7818608E-02  0.1099157E+00
         -1   -1    0    0    0  501 -0.00000000000E+00  0.00000000000E+00  0.14043434480E+03  0.14043434480E+03  0.00000000000E+00 0. -1.
          1   -1    0    0  501    0  0.00000000000E+00 -0.00000000000E+00 -0.13339713476E+03  0.13339713476E+03  0.00000000000E+00 0. -1.
         36    2    1    2    0    0  0.00000000000E+00  0.00000000000E+00  0.70372100408E+01  0.27383147957E+03  0.27374103981E+03 0.  0.
         25    2    3    3    0    0 -0.32618396123E+02 -0.51803534497E+02  0.23485640059E+02  0.13388611292E+03  0.11673195789E+03 0.  0.
         25    2    3    3    0    0  0.32618396123E+02  0.51803534497E+02 -0.16448430018E+02  0.13994536665E+03  0.12476613661E+03 0.  0.
          5    1    4    4  502    0  0.14072387785E+02 -0.29056725292E+02  0.61319328090E+02  0.69458443548E+02  0.47000000000E+01 0.  1.
         -5    1    4    4    0  502 -0.46690783908E+02 -0.22746809206E+02 -0.37833688031E+02  0.64427669374E+02  0.47000000000E+01 0.  1.
          5    1    5    5  503    0  0.10950717297E+02  0.78699516781E+02  0.27173952464E+02  0.84107347143E+02  0.47000000000E+01 0.  1.
         -5    1    5    5    0  503  0.21667678826E+02 -0.26895982283E+02 -0.43622382482E+02  0.55838019504E+02  0.47000000000E+01 0.  1.
<mgrwt>
<rscale>  0 0.27374104E+03</rscale>
<asrwt>0</asrwt>
<pdfrwt beam="1">  1        1 0.20522636E-01 0.27374104E+03</pdfrwt>
<pdfrwt beam="2">  1       -1 0.21605284E-01 0.27374104E+03</pdfrwt>
<totfact> 0.43560996E+03</totfact>
</mgrwt>
</event>
<event>
 9    1  0.2098759E-002  0.2749741E+03  0.7818608E-02  0.1098466E+00
         -2   -1    0    0    0  501 -0.00000000000E+00  0.00000000000E+00  0.12763479101E+02  0.12763479101E+02  0.00000000000E+00 0. -1.
          2   -1    0    0  501    0  0.00000000000E+00 -0.00000000000E+00 -0.14809979994E+04  0.14809979994E+04  0.00000000000E+00 0. -1.
         36    2    1    2    0    0 -0.71054273576E-14  0.00000000000E+00 -0.14682345203E+04  0.14937614785E+04  0.27497408616E+03 0.  0.
         25    2    3    3    0    0  0.21909662782E+02 -0.33569191608E+02 -0.59097606041E+03  0.60662686957E+03  0.13090657339E+03 0.  0.
         25    2    3    3    0    0 -0.21909662782E+02  0.33569191608E+02 -0.87725845992E+03  0.88713460896E+03  0.12577155867E+03 0.  0.
          5    1    4    4  502    0 -0.55138366091E+02 -0.12063448128E+02 -0.23143262692E+03  0.23826228615E+03  0.47000000000E+01 0. -1.
         -5    1    4    4    0  502  0.77048028873E+02 -0.21505743480E+02 -0.35954343349E+03  0.36836458342E+03  0.47000000000E+01 0. -1.
          5    1    5    5  503    0  0.37976161893E+02 -0.26403356505E+02 -0.27021141829E+03  0.27418174024E+03  0.47000000000E+01 0. -1.
         -5    1    5    5    0  503 -0.59885824675E+02  0.59972548113E+02 -0.60704704163E+03  0.61295286872E+03  0.47000000000E+01 0. -1.
<mgrwt>
<rscale>  0 0.27497409E+03</rscale>
<asrwt>0</asrwt>
<pdfrwt beam="1">  1        2 0.22784579E+00 0.27497409E+03</pdfrwt>
<pdfrwt beam="2">  1       -2 0.19636127E-02 0.27497409E+03</pdfrwt>
<totfact> 0.11094231E+04</totfact>
</mgrwt>
</event>
<event>
 9    1  0.2098759E-002  0.2746258E+03  0.7818608E-02  0.1098661E+00
          2   -1    0    0  501    0  0.00000000000E+00  0.00000000000E+00  0.13973937982E+04  0.13973937982E+04  0.00000000000E+00 0.  1.
         -2   -1    0    0    0  501 -0.00000000000E+00 -0.00000000000E+00 -0.13492855942E+02  0.13492855942E+02  0.00000000000E+00 0.  1.
         36    2    1    2    0    0  0.71054273576E-14  0.00000000000E+00  0.13839009422E+04  0.14108866541E+04  0.27462580515E+03 0.  0.
         25    2    3    3    0    0  0.33257133051E+02  0.21682598731E+02  0.95330541717E+03  0.95971586985E+03  0.10337872340E+03 0.  0.
         25    2    3    3    0    0 -0.33257133051E+02 -0.21682598731E+02  0.43059552506E+03  0.45117078426E+03  0.12871052165E+03 0.  0.
          5    1    4    4  502    0  0.53909796980E+00  0.50842493575E+02  0.25739783150E+03  0.26241376382E+03  0.47000000000E+01 0.  1.
         -5    1    4    4    0  502  0.32718035081E+02 -0.29159894844E+02  0.69590758567E+03  0.69730210603E+03  0.47000000000E+01 0.  1.
          5    1    5    5  503    0  0.49008426609E+02 -0.46221494235E+01  0.18805427458E+03  0.19444714020E+03  0.47000000000E+01 0. -1.
         -5    1    5    5    0  503 -0.82265559660E+02 -0.17060449308E+02  0.24254125048E+03  0.25672364406E+03  0.47000000000E+01 0. -1.
<mgrwt>
<rscale>  0 0.27462581E+03</rscale>
<asrwt>0</asrwt>
<pdfrwt beam="1">  1        2 0.21498355E+00 0.27462581E+03</pdfrwt>
<pdfrwt beam="2">  1       -2 0.20758251E-02 0.27462581E+03</pdfrwt>
<totfact> 0.11342124E+04</totfact>
</mgrwt>
</event>
<event>
 9    1  0.2098759E-002  0.2735168E+03  0.7818608E-02  0.1099284E+00
          1   -1    0    0  501    0  0.00000000000E+00  0.00000000000E+00  0.41282913190E+03  0.41282913190E+03  0.00000000000E+00 0.  1.
         -1   -1    0    0    0  501 -0.00000000000E+00 -0.00000000000E+00 -0.45304107818E+02  0.45304107818E+02  0.00000000000E+00 0.  1.
         36    2    1    2    0    0  0.00000000000E+00  0.71054273576E-14  0.36752502408E+03  0.45813323971E+03  0.27351676732E+03 0.  0.
         25    2    3    3    0    0 -0.45131070889E+02  0.41070370994E+02  0.16424676627E+03  0.21138944045E+03  0.11825779623E+03 0.  0.
         25    2    3    3    0    0  0.45131070889E+02 -0.41070370994E+02  0.20327825781E+03  0.24674379926E+03  0.12584460038E+03 0.  0.
          5    1    4    4  502    0  0.47040935873E+01  0.14785239047E+02 -0.15822239466E+02  0.22653146622E+02  0.47000000000E+01 0.  1.
         -5    1    4    4    0  502 -0.49835164476E+02  0.26285131947E+02  0.18006900574E+03  0.18873629383E+03  0.47000000000E+01 0.  1.
          5    1    5    5  503    0 -0.12982749947E+02  0.29095107080E+02  0.11637538580E+03  0.12074931666E+03  0.47000000000E+01 0.  1.
         -5    1    5    5    0  503  0.58113820835E+02 -0.70165478073E+02  0.86902872002E+02  0.12599448261E+03  0.47000000000E+01 0.  1.
<mgrwt>
<rscale>  0 0.27351677E+03</rscale>
<asrwt>0</asrwt>
<pdfrwt beam="1">  1        1 0.63512172E-01 0.27351677E+03</pdfrwt>
<pdfrwt beam="2">  1       -1 0.69698630E-02 0.27351677E+03</pdfrwt>
<totfact> 0.61486210E+03</totfact>
</mgrwt>
</event>
<event>
 9    1  0.2098759E-002  0.2782554E+03  0.7818608E-02  0.1096646E+00
         -1   -1    0    0    0  501 -0.00000000000E+00  0.00000000000E+00  0.14852500101E+03  0.14852500101E+03  0.00000000000E+00 0.  1.
          1   -1    0    0  501    0  0.00000000000E+00 -0.00000000000E+00 -0.13032495808E+03  0.13032495808E+03  0.00000000000E+00 0.  1.
         36    2    1    2    0    0  0.00000000000E+00  0.00000000000E+00  0.18200042929E+02  0.27884995909E+03  0.27825538292E+03 0.  0.
         25    2    3    3    0    0  0.16674983440E+02  0.45045725453E+02 -0.31104184877E+02  0.13542963385E+03  0.12274584699E+03 0.  0.
         25    2    3    3    0    0 -0.16674983440E+02 -0.45045725453E+02  0.49304227806E+02  0.14342032524E+03  0.12582253518E+03 0.  0.
          5    1    4    4  502    0 -0.45896928706E+02  0.39998422462E+02 -0.38284257556E+02  0.72070633692E+02  0.47000000000E+01 0.  1.
         -5    1    4    4    0  502  0.62571912147E+02  0.50473029914E+01  0.71800726795E+01  0.63359000157E+02  0.47000000000E+01 0.  1.
          5    1    5    5  503    0  0.17812350932E+02 -0.75729244988E+02  0.56772840160E+02  0.96423253275E+02  0.47000000000E+01 0.  1.
         -5    1    5    5    0  503 -0.34487334372E+02  0.30683519535E+02 -0.74686123544E+01  0.46997071969E+02  0.47000000000E+01 0.  1.
<mgrwt>
<rscale>  0 0.27825538E+03</rscale>
<asrwt>0</asrwt>
<pdfrwt beam="1">  1        1 0.20049994E-01 0.27825538E+03</pdfrwt>
<pdfrwt beam="2">  1       -1 0.22850000E-01 0.27825538E+03</pdfrwt>
<totfact> 0.40962013E+03</totfact>
</mgrwt>
</event>
<event>
 9    1  0.2098759E-002  0.2712595E+03  0.7818608E-02  0.1100561E+00
         -2   -1    0    0    0  501 -0.00000000000E+00  0.00000000000E+00  0.62456764573E+02  0.62456764573E+02  0.00000000000E+00 0. -1.
          2   -1    0    0  501    0  0.00000000000E+00 -0.00000000000E+00 -0.29453053344E+03  0.29453053344E+03  0.00000000000E+00 0. -1.
         36    2    1    2    0    0 -0.71054273576E-14 -0.71054273576E-14 -0.23207376887E+03  0.35698729802E+03  0.27125946388E+03 0.  0.
         25    2    3    3    0    0  0.37274502614E+02 -0.32035808277E+02 -0.81518683014E+02  0.15690321145E+03  0.12473027109E+03 0.  0.
         25    2    3    3    0    0 -0.37274502614E+02  0.32035808277E+02 -0.15055508586E+03  0.20008408657E+03  0.12227479815E+03 0.  0.
          5    1    4    4  502    0 -0.11511089693E+02 -0.48945474902E+02  0.10223423271E+02  0.51524490125E+02  0.47000000000E+01 0.  1.
         -5    1    4    4    0  502  0.48785592307E+02  0.16909666625E+02 -0.91742106285E+02  0.10537872132E+03  0.47000000000E+01 0.  1.
          5    1    5    5  503    0 -0.35582394196E+02  0.42669987213E+02 -0.71681533450E+01  0.56216607936E+02  0.47000000000E+01 0. -1.
         -5    1    5    5    0  503 -0.16921084174E+01 -0.10634178936E+02 -0.14338693251E+03  0.14386747863E+03  0.47000000000E+01 0. -1.
<mgrwt>
<rscale>  0 0.27125946E+03</rscale>
<asrwt>0</asrwt>
<pdfrwt beam="1">  1        2 0.45312388E-01 0.27125946E+03</pdfrwt>
<pdfrwt beam="2">  1       -2 0.96087333E-02 0.27125946E+03</pdfrwt>
<totfact> 0.78239345E+03</totfact>
</mgrwt>
</event>
<event>
 9    1  0.2098759E-002  0.2744303E+03  0.7818608E-02  0.1098770E+00
         -1   -1    0    0    0  501 -0.00000000000E+00  0.00000000000E+00  0.11281430274E+02  0.11281430274E+02  0.00000000000E+00 0. -1.
          1   -1    0    0  501    0  0.00000000000E+00 -0.00000000000E+00 -0.16689370923E+04  0.16689370923E+04  0.00000000000E+00 0. -1.
         36    2    1    2    0    0  0.71054273576E-14  0.00000000000E+00 -0.16576556620E+04  0.16802185226E+04  0.27443030036E+03 0.  0.
         25    2    3    3    0    0 -0.11503313415E+02 -0.47057499786E+02 -0.10076862302E+04  0.10164658957E+04  0.12419599114E+03 0.  0.
         25    2    3    3    0    0  0.11503313415E+02  0.47057499786E+02 -0.64996943186E+03  0.66375262685E+03  0.12554104023E+03 0.  0.
          5    1    4    4  502    0  0.30312425685E+02 -0.62773718466E+02 -0.83891837439E+03  0.84182273179E+03  0.47000000000E+01 0.  1.
         -5    1    4    4    0  502 -0.41815739100E+02  0.15716218679E+02 -0.16876785577E+03  0.17464316393E+03  0.47000000000E+01 0.  1.
          5    1    5    5  503    0 -0.48186763546E+02  0.54959724121E+02 -0.31712133345E+03  0.32546976140E+03  0.47000000000E+01 0.  1.
         -5    1    5    5    0  503  0.59690076961E+02 -0.79022243345E+01 -0.33284809842E+03  0.33828286545E+03  0.47000000000E+01 0.  1.
<mgrwt>
<rscale>  0 0.27443030E+03</rscale>
<asrwt>0</asrwt>
<pdfrwt beam="1">  1        1 0.25675959E+00 0.27443030E+03</pdfrwt>
<pdfrwt beam="2">  1       -1 0.17356044E-02 0.27443030E+03</pdfrwt>
<totfact> 0.46736496E+03</totfact>
</mgrwt>
</event>
<event>
 9    1  0.2098759E-002  0.2751887E+03  0.7818608E-02  0.1098346E+00
         -2   -1    0    0    0  501 -0.00000000000E+00  0.00000000000E+00  0.26859794301E+02  0.26859794301E+02  0.00000000000E+00 0.  1.
          2   -1    0    0  501    0  0.00000000000E+00 -0.00000000000E+00 -0.70485278770E+03  0.70485278770E+03  0.00000000000E+00 0.  1.
         36    2    1    2    0    0  0.00000000000E+00  0.00000000000E+00 -0.67799299340E+03  0.73171258201E+03  0.27518866903E+03 0.  0.
         25    2    3    3    0    0  0.16782729451E+02 -0.20878623884E+02 -0.21081545211E+03  0.24661777295E+03  0.12513830006E+03 0.  0.
         25    2    3    3    0    0 -0.16782729451E+02  0.20878623884E+02 -0.46717754129E+03  0.48509480906E+03  0.12784577327E+03 0.  0.
          5    1    4    4  502    0  0.12807541509E+02  0.14319702856E+02  0.10530007205E+02  0.22406652163E+02  0.47000000000E+01 0.  1.
         -5    1    4    4    0  502  0.39751879412E+01 -0.35198326741E+02 -0.22134545932E+03  0.22421112079E+03  0.47000000000E+01 0.  1.
          5    1    5    5  503    0  0.16793520905E+02 -0.49383820204E+02 -0.17355440190E+03  0.18128431940E+03  0.47000000000E+01 0.  1.
         -5    1    5    5    0  503 -0.33576250355E+02  0.70262444089E+02 -0.29362313939E+03  0.30381048965E+03  0.47000000000E+01 0.  1.
<mgrwt>
<rscale>  0 0.27518867E+03</rscale>
<asrwt>0</asrwt>
<pdfrwt beam="1">  1        2 0.10843888E+00 0.27518867E+03</pdfrwt>
<pdfrwt beam="2">  1       -2 0.41322764E-02 0.27518867E+03</pdfrwt>
<totfact> 0.10838171E+04</totfact>
</mgrwt>
</event>
<event>
 9    1  0.2098759E-002  0.2747872E+03  0.7818608E-02  0.1098571E+00
          4   -1    0    0  501    0  0.00000000000E+00  0.00000000000E+00  0.15698041102E+03  0.15698041102E+03  0.00000000000E+00 0.  1.
         -4   -1    0    0    0  501 -0.00000000000E+00 -0.00000000000E+00 -0.12025067463E+03  0.12025067463E+03  0.00000000000E+00 0.  1.
         36    2    1    2    0    0  0.22204460493E-14 -0.35527136788E-14  0.36729736390E+02  0.27723108566E+03  0.27478719278E+03 0.  0.
         25    2    3    3    0    0 -0.31099721782E+00 -0.21953126279E+01  0.72799386529E+02  0.14389485746E+03  0.12410102017E+03 0.  0.
         25    2    3    3    0    0  0.31099721782E+00  0.21953126279E+01 -0.36069650139E+02  0.13333622819E+03  0.12834568154E+03 0.  0.
          5    1    4    4  502    0  0.35080653835E+02  0.24072371351E+02  0.87324541476E+02  0.97251205030E+02  0.47000000000E+01 0. -1.
         -5    1    4    4    0  502 -0.35391651053E+02 -0.26267683979E+02 -0.14525154947E+02  0.46643652431E+02  0.47000000000E+01 0. -1.
          5    1    5    5  503    0 -0.28885356431E+01 -0.55243357018E+02  0.13631503801E+02  0.57167123669E+02  0.47000000000E+01 0.  1.
         -5    1    5    5    0  503  0.31995328610E+01  0.57438669646E+02 -0.49701153939E+02  0.76169104525E+02  0.47000000000E+01 0.  1.
<mgrwt>
<rscale>  0 0.27478719E+03</rscale>
<asrwt>0</asrwt>
<pdfrwt beam="1">  1        4 0.24150833E-01 0.27478719E+03</pdfrwt>
<pdfrwt beam="2">  1       -4 0.18500104E-01 0.27478719E+03</pdfrwt>
<totfact> 0.77788180E+02</totfact>
</mgrwt>
</event>
<event>
 9    1  0.2098759E-002  0.2758987E+03  0.7818608E-02  0.1097950E+00
          2   -1    0    0  501    0  0.00000000000E+00  0.00000000000E+00  0.37112348871E+03  0.37112348871E+03  0.00000000000E+00 0. -1.
         -2   -1    0    0    0  501 -0.00000000000E+00 -0.00000000000E+00 -0.51276793346E+02  0.51276793346E+02  0.00000000000E+00 0. -1.
         36    2    1    2    0    0 -0.71054273576E-14 -0.71054273576E-14  0.31984669536E+03  0.42240028206E+03  0.27589869472E+03 0.  0.
         25    2    3    3    0    0  0.58739130619E+02 -0.29104690807E+01  0.21841483277E+03  0.25257328345E+03  0.11238090604E+03 0.  0.
         25    2    3    3    0    0 -0.58739130619E+02  0.29104690807E+01  0.10143186259E+03  0.16982699861E+03  0.12285776496E+03 0.  0.
          5    1    4    4  502    0  0.37973352293E+02 -0.18277275068E+02  0.11413753522E+02  0.43913529097E+02  0.47000000000E+01 0. -1.
         -5    1    4    4    0  502  0.20765778326E+02  0.15366805987E+02  0.20700107925E+03  0.20865975435E+03  0.47000000000E+01 0. -1.
          5    1    5    5  503    0  0.68261341950E+01  0.41568731917E+02 -0.66757355180E+00  0.42392112895E+02  0.47000000000E+01 0. -1.
         -5    1    5    5    0  503 -0.65565264814E+02 -0.38658262836E+02  0.10209943615E+03  0.12743488571E+03  0.47000000000E+01 0. -1.
<mgrwt>
<rscale>  0 0.27589869E+03</rscale>
<asrwt>0</asrwt>
<pdfrwt beam="1">  1        2 0.57095919E-01 0.27589869E+03</pdfrwt>
<pdfrwt beam="2">  1       -2 0.78887377E-02 0.27589869E+03</pdfrwt>
<totfact> 0.83212206E+03</totfact>
</mgrwt>
</event>
<event>
 9    1  0.2098759E-002  0.2749006E+03  0.7818608E-02  0.1098507E+00
          1   -1    0    0  501    0  0.00000000000E+00  0.00000000000E+00  0.91652499085E+02  0.91652499085E+02  0.00000000000E+00 0. -1.
         -1   -1    0    0    0  501 -0.00000000000E+00 -0.00000000000E+00 -0.20613282601E+03  0.20613282601E+03  0.00000000000E+00 0. -1.
         36    2    1    2    0    0  0.00000000000E+00  0.00000000000E+00 -0.11448032692E+03  0.29778532509E+03  0.27490062675E+03 0.  0.
         25    2    3    3    0    0 -0.41551015879E+02 -0.16758974410E+02 -0.29973532159E+02  0.13559758560E+03  0.12442243547E+03 0.  0.
         25    2    3    3    0    0  0.41551015879E+02  0.16758974410E+02 -0.84506794766E+02  0.16218773949E+03  0.13098135110E+03 0.  0.
          5    1    4    4  502    0 -0.29864567658E+02 -0.31352137758E+02 -0.74937675276E+02  0.86675222060E+02  0.47000000000E+01 0. -1.
         -5    1    4    4    0  502 -0.11686448221E+02  0.14593163348E+02  0.44964143117E+02  0.48922363544E+02  0.47000000000E+01 0. -1.
          5    1    5    5  503    0  0.26473557289E+02 -0.34676558984E+02 -0.97427319490E+02  0.10685263479E+03  0.47000000000E+01 0.  1.
         -5    1    5    5    0  503  0.15077458590E+02  0.51435533394E+02  0.12920524725E+02  0.55335104700E+02  0.47000000000E+01 0.  1.
<mgrwt>
<rscale>  0 0.27490063E+03</rscale>
<asrwt>0</asrwt>
<pdfrwt beam="1">  1        1 0.14100384E-01 0.27490063E+03</pdfrwt>
<pdfrwt beam="2">  1       -1 0.31712742E-01 0.27490063E+03</pdfrwt>
<totfact> 0.37362091E+03</totfact>
</mgrwt>
</event>
<event>
 9    1  0.2098759E-002  0.2751044E+03  0.7818608E-02  0.1098393E+00
          1   -1    0    0  501    0  0.00000000000E+00  0.00000000000E+00  0.21903173671E+02  0.21903173671E+02  0.00000000000E+00 0.  1.
         -1   -1    0    0    0  501 -0.00000000000E+00 -0.00000000000E+00 -0.86382961333E+03  0.86382961333E+03  0.00000000000E+00 0.  1.
         36    2    1    2    0    0 -0.71054273576E-14  0.00000000000E+00 -0.84192643966E+03  0.88573278701E+03  0.27510441685E+03 0.  0.
         25    2    3    3    0    0  0.13690190699E+02  0.36108343147E+02 -0.36118559918E+03  0.38035233032E+03  0.11279017846E+03 0.  0.
         25    2    3    3    0    0 -0.13690190699E+02 -0.36108343147E+02 -0.48074084048E+03  0.50538045669E+03  0.15101793445E+03 0.  0.
          5    1    4    4  502    0  0.36550367877E+02 -0.30161712934E+02 -0.11879597819E+03  0.12798528334E+03  0.47000000000E+01 0.  1.
         -5    1    4    4    0  502 -0.22860177178E+02  0.66270056081E+02 -0.24238962100E+03  0.25236704698E+03  0.47000000000E+01 0.  1.
          5    1    5    5  503    0  0.67177810374E+02 -0.57530880566E+00 -0.19994568651E+03  0.21098236121E+03  0.47000000000E+01 0. -1.
         -5    1    5    5    0  503 -0.80868001073E+02 -0.35533034342E+02 -0.28079515397E+03  0.29439809548E+03  0.47000000000E+01 0. -1.
<mgrwt>
<rscale>  0 0.27510442E+03</rscale>
<asrwt>0</asrwt>
<pdfrwt beam="1">  1        1 0.33697190E-02 0.27510442E+03</pdfrwt>
<pdfrwt beam="2">  1       -1 0.13289686E+00 0.27510442E+03</pdfrwt>
<totfact> 0.14907582E+03</totfact>
</mgrwt>
</event>
<event>
 9    1  0.2098759E-002  0.2745192E+03  0.7818608E-02  0.1098721E+00
          2   -1    0    0  501    0  0.00000000000E+00  0.00000000000E+00  0.34883308325E+03  0.34883308325E+03  0.00000000000E+00 0.  1.
         -2   -1    0    0    0  501 -0.00000000000E+00 -0.00000000000E+00 -0.54009192542E+02  0.54009192542E+02  0.00000000000E+00 0.  1.
         36    2    1    2    0    0 -0.71054273576E-14 -0.35527136788E-14  0.29482389071E+03  0.40284227579E+03  0.27451916624E+03 0.  0.
         25    2    3    3    0    0  0.38086404995E+02  0.28469009672E+02  0.10182708852E+03  0.16781356538E+03  0.12462575180E+03 0.  0.
         25    2    3    3    0    0 -0.38086404995E+02 -0.28469009672E+02  0.19299680218E+03  0.23502871041E+03  0.12541798238E+03 0.  0.
          5    1    4    4  502    0  0.68958773894E+02  0.52546282900E+02  0.42732483963E+02  0.96770757615E+02  0.47000000000E+01 0.  1.
         -5    1    4    4    0  502 -0.30872368899E+02 -0.24077273228E+02  0.59094604559E+02  0.71042807768E+02  0.47000000000E+01 0.  1.
          5    1    5    5  503    0 -0.28151499488E+02 -0.16105726151E+02  0.20927205263E+03  0.21182252796E+03  0.47000000000E+01 0. -1.
         -5    1    5    5    0  503 -0.99349055072E+01 -0.12363283521E+02 -0.16275250446E+02  0.23206182451E+02  0.47000000000E+01 0. -1.
<mgrwt>
<rscale>  0 0.27451917E+03</rscale>
<asrwt>0</asrwt>
<pdfrwt beam="1">  1        2 0.53666627E-01 0.27451917E+03</pdfrwt>
<pdfrwt beam="2">  1       -2 0.83091068E-02 0.27451917E+03</pdfrwt>
<totfact> 0.82021361E+03</totfact>
</mgrwt>
</event>
<event>
 9    1  0.2098759E-002  0.2747349E+03  0.7818608E-02  0.1098600E+00
         -2   -1    0    0    0  501 -0.00000000000E+00  0.00000000000E+00  0.61201483727E+02  0.61201483727E+02  0.00000000000E+00 0.  1.
          2   -1    0    0  501    0  0.00000000000E+00 -0.00000000000E+00 -0.30832287490E+03  0.30832287490E+03  0.00000000000E+00 0.  1.
         36    2    1    2    0    0  0.00000000000E+00 -0.17763568394E-14 -0.24712139117E+03  0.36952435863E+03  0.27473490794E+03 0.  0.
         25    2    3    3    0    0  0.67179052122E+02 -0.11693390954E+02 -0.12159361580E+03  0.17046317712E+03  0.98096518353E+02 0.  0.
         25    2    3    3    0    0 -0.67179052122E+02  0.11693390954E+02 -0.12552777537E+03  0.19906118151E+03  0.13863033996E+03 0.  0.
          5    1    4    4  502    0  0.72956039800E+02 -0.25656870897E+02 -0.39706029906E+02  0.87060424869E+02  0.47000000000E+01 0. -1.
         -5    1    4    4    0  502 -0.57769876778E+01  0.13963479943E+02 -0.81887585893E+02  0.83402752246E+02  0.47000000000E+01 0. -1.
          5    1    5    5  503    0  0.37878932187E+02  0.15057111796E+02 -0.67259462471E+02  0.78787406425E+02  0.47000000000E+01 0.  1.
         -5    1    5    5    0  503 -0.10505798431E+03 -0.33637208421E+01 -0.58268312901E+02  0.12027377509E+03  0.47000000000E+01 0.  1.
<mgrwt>
<rscale>  0 0.27473491E+03</rscale>
<asrwt>0</asrwt>
<pdfrwt beam="1">  1        2 0.47434288E-01 0.27473491E+03</pdfrwt>
<pdfrwt beam="2">  1       -2 0.94156130E-02 0.27473491E+03</pdfrwt>
<totfact> 0.76953165E+03</totfact>
</mgrwt>
</event>
<event>
 9    1  0.2098759E-002  0.2759606E+03  0.7818608E-02  0.1097916E+00
         -1   -1    0    0    0  501 -0.00000000000E+00  0.00000000000E+00  0.12399662970E+02  0.12399662970E+02  0.00000000000E+00 0. -1.
          1   -1    0    0  501    0  0.00000000000E+00 -0.00000000000E+00 -0.15354095633E+04  0.15354095633E+04  0.00000000000E+00 0. -1.
         36    2    1    2    0    0  0.71054273576E-14 -0.71054273576E-14 -0.15230099003E+04  0.15478092262E+04  0.27596058491E+03 0.  0.
         25    2    3    3    0    0 -0.59514688913E+02 -0.16875876386E+02 -0.75767000211E+03  0.76991743530E+03  0.12199275262E+03 0.  0.
         25    2    3    3    0    0  0.59514688913E+02  0.16875876386E+02 -0.76533989819E+03  0.77789179094E+03  0.12467431668E+03 0.  0.
          5    1    4    4  502    0 -0.85166521952E+02 -0.19313358860E+02 -0.71134105991E+03  0.71669696232E+03  0.47000000000E+01 0. -1.
         -5    1    4    4    0  502  0.25651833039E+02  0.24374824738E+01 -0.46328942197E+02  0.53220472979E+02  0.47000000000E+01 0. -1.
          5    1    5    5  503    0  0.80544946865E+02  0.51873541391E+02 -0.59378390461E+03  0.60148131154E+03  0.47000000000E+01 0.  1.
         -5    1    5    5    0  503 -0.21030257952E+02 -0.34997665004E+02 -0.17155599359E+03  0.17641047940E+03  0.47000000000E+01 0.  1.
<mgrwt>
<rscale>  0 0.27596058E+03</rscale>
<asrwt>0</asrwt>
<pdfrwt beam="1">  1        1 0.23621667E+00 0.27596058E+03</pdfrwt>
<pdfrwt beam="2">  1       -1 0.19076419E-02 0.27596058E+03</pdfrwt>
<totfact> 0.49824823E+03</totfact>
</mgrwt>
</event>
<event>
 8    1  0.2098759E-002  0.3314076E+03  0.7818608E-02  0.1070516E+00
          2   -1    0    0  501    0  0.00000000000E+00  0.00000000000E+00  0.10934541136E+03  0.10934541136E+03  0.00000000000E+00 0.  1.
         -2   -1    0    0    0  501 -0.00000000000E+00 -0.00000000000E+00 -0.25111017533E+03  0.25111017533E+03  0.00000000000E+00 0.  1.
         25    2    1    2    0    0  0.66564098385E+02 -0.82508161067E+02 -0.40985063733E+02  0.16890248601E+03  0.12493957938E+03 0.  0.
         25    2    1    2    0    0 -0.66564098385E+02  0.82508161067E+02 -0.10077970023E+03  0.19155310068E+03  0.12368373605E+03 0.  0.
          5    1    3    3  502    0  0.36050783701E+02  0.27607599805E+02 -0.28606555902E+02  0.53872661090E+02  0.47000000000E+01 0. -1.
         -5    1    3    3    0  502  0.30513314684E+02 -0.11011576087E+03 -0.12378507831E+02  0.11502982492E+03  0.47000000000E+01 0. -1.
          5    1    4    4  503    0  0.34388328984E+02  0.58908917099E+01 -0.30389390934E+02  0.46506610893E+02  0.47000000000E+01 0.  1.
         -5    1    4    4    0  503 -0.10095242737E+03  0.76617269357E+02 -0.70390309296E+02  0.14504648978E+03  0.47000000000E+01 0.  1.
<mgrwt>
<rscale>  0 0.33140758E+03</rscale>
<asrwt>0</asrwt>
<pdfrwt beam="1">  1        2 0.16822371E-01 0.33140758E+03</pdfrwt>
<pdfrwt beam="2">  1       -2 0.38632334E-01 0.33140758E+03</pdfrwt>
<totfact> 0.21728547E+03</totfact>
</mgrwt>
</event>
<event>
 9    1  0.2098759E-002  0.2767062E+03  0.7818608E-02  0.1097502E+00
          1   -1    0    0  501    0  0.00000000000E+00  0.00000000000E+00  0.70962090812E+02  0.70962090812E+02  0.00000000000E+00 0. -1.
         -1   -1    0    0    0  501 -0.00000000000E+00 -0.00000000000E+00 -0.26974374638E+03  0.26974374638E+03  0.00000000000E+00 0. -1.
         36    2    1    2    0    0  0.53290705182E-14  0.00000000000E+00 -0.19878165557E+03  0.34070583719E+03  0.27670619962E+03 0.  0.
         25    2    3    3    0    0 -0.71188110694E+01 -0.45773823811E+02 -0.15025896518E+03  0.20000927114E+03  0.12361242457E+03 0.  0.
         25    2    3    3    0    0  0.71188110694E+01  0.45773823811E+02 -0.48522690392E+02  0.14069656606E+03  0.12367356953E+03 0.  0.
          5    1    4    4  502    0 -0.15557673745E+02  0.13375296679E+02  0.13918950583E+02  0.25234241795E+02  0.47000000000E+01 0. -1.
         -5    1    4    4    0  502  0.84388626758E+01 -0.59149120490E+02 -0.16417791576E+03  0.17477502934E+03  0.47000000000E+01 0. -1.
          5    1    5    5  503    0 -0.50179929879E+02  0.38076850988E+02 -0.53088892135E+02  0.82512983293E+02  0.47000000000E+01 0.  1.
         -5    1    5    5    0  503  0.57298740948E+02  0.76969728234E+01  0.45662017423E+01  0.58183582764E+02  0.47000000000E+01 0.  1.
<mgrwt>
<rscale>  0 0.27670620E+03</rscale>
<asrwt>0</asrwt>
<pdfrwt beam="1">  1        1 0.10917245E-01 0.27670620E+03</pdfrwt>
<pdfrwt beam="2">  1       -1 0.41499038E-01 0.27670620E+03</pdfrwt>
<totfact> 0.32795509E+03</totfact>
</mgrwt>
</event>
<event>
 9    1  0.2098759E-002  0.2766756E+03  0.7818608E-02  0.1097519E+00
          2   -1    0    0  501    0  0.00000000000E+00  0.00000000000E+00  0.23031235352E+03  0.23031235352E+03  0.00000000000E+00 0. -1.
         -2   -1    0    0    0  501 -0.00000000000E+00 -0.00000000000E+00 -0.83093018737E+02  0.83093018737E+02  0.00000000000E+00 0. -1.
         36    2    1    2    0    0  0.14210854715E-13  0.10658141036E-13  0.14721933478E+03  0.31340537226E+03  0.27667561299E+03 0.  0.
         25    2    3    3    0    0  0.45609374571E+02  0.26755383781E+02  0.43984578432E+02  0.14279780207E+03  0.12514193352E+03 0.  0.
         25    2    3    3    0    0 -0.45609374571E+02 -0.26755383781E+02  0.10323475635E+03  0.17060757019E+03  0.12511379811E+03 0.  0.
          5    1    4    4  502    0  0.43633397308E+02 -0.43921324032E+02  0.35259674270E+02  0.71402315754E+02  0.47000000000E+01 0.  1.
         -5    1    4    4    0  502  0.19759772636E+01  0.70676707813E+02  0.87249041615E+01  0.71395486314E+02  0.47000000000E+01 0.  1.
          5    1    5    5  503    0 -0.19034222136E+02 -0.47094002378E+02 -0.10393925464E+02  0.52060257000E+02  0.47000000000E+01 0. -1.
         -5    1    5    5    0  503 -0.26575152435E+02  0.20338618597E+02  0.11362868182E+03  0.11854731319E+03  0.47000000000E+01 0. -1.
<mgrwt>
<rscale>  0 0.27667561E+03</rscale>
<asrwt>0</asrwt>
<pdfrwt beam="1">  1        2 0.35432669E-01 0.27667561E+03</pdfrwt>
<pdfrwt beam="2">  1       -2 0.12783541E-01 0.27667561E+03</pdfrwt>
<totfact> 0.64591032E+03</totfact>
</mgrwt>
</event>
<event>
 9    1  0.2098759E-002  0.2708477E+03  0.7818608E-02  0.1100795E+00
          1   -1    0    0  501    0  0.00000000000E+00  0.00000000000E+00  0.24288019396E+03  0.24288019396E+03  0.00000000000E+00 0. -1.
         -1   -1    0    0    0  501 -0.00000000000E+00 -0.00000000000E+00 -0.75508939324E+02  0.75508939324E+02  0.00000000000E+00 0. -1.
         36    2    1    2    0    0 -0.71054273576E-14 -0.71054273576E-14  0.16737125464E+03  0.31838913329E+03  0.27084774933E+03 0.  0.
         25    2    3    3    0    0  0.29508064094E+02  0.17554865337E+02  0.46370310936E+02  0.14094232822E+03  0.12859096004E+03 0.  0.
         25    2    3    3    0    0 -0.29508064094E+02 -0.17554865337E+02  0.12100094370E+03  0.17744680506E+03  0.12516885038E+03 0.  0.
          5    1    4    4  502    0  0.25232243484E+02  0.59131122361E+02 -0.15340848473E+02  0.66261507489E+02  0.47000000000E+01 0. -1.
         -5    1    4    4    0  502  0.42758206103E+01 -0.41576257023E+02  0.61711159409E+02  0.74680820734E+02  0.47000000000E+01 0. -1.
          5    1    5    5  503    0 -0.46548716131E+02 -0.54865137008E+02  0.31112822626E+02  0.78530656206E+02  0.47000000000E+01 0.  1.
         -5    1    5    5    0  503  0.17040652038E+02  0.37310271671E+02  0.89888121077E+02  0.98916148857E+02  0.47000000000E+01 0.  1.
<mgrwt>
<rscale>  0 0.27084775E+03</rscale>
<asrwt>0</asrwt>
<pdfrwt beam="1">  1        1 0.37366183E-01 0.27084775E+03</pdfrwt>
<pdfrwt beam="2">  1       -1 0.11616760E-01 0.27084775E+03</pdfrwt>
<totfact> 0.54803277E+03</totfact>
</mgrwt>
</event>
<event>
 8    1  0.2098759E-002  0.3036649E+03  0.7818608E-02  0.1083423E+00
         -2   -1    0    0    0  501 -0.00000000000E+00  0.00000000000E+00  0.22944388400E+02  0.22944388400E+02  0.00000000000E+00 0.  1.
          2   -1    0    0  501    0  0.00000000000E+00 -0.00000000000E+00 -0.10047375659E+04  0.10047375659E+04  0.00000000000E+00 0.  1.
         25    2    1    2    0    0  0.28555390540E+01  0.79692363074E+02 -0.54988229499E+03  0.57061127261E+03  0.12987555294E+03 0.  0.
         25    2    1    2    0    0 -0.28555390540E+01 -0.79692363074E+02 -0.43191088248E+03  0.45707068166E+03  0.12652102905E+03 0.  0.
          5    1    3    3  502    0 -0.30237771011E+02  0.18022870423E+02 -0.31397259182E+02  0.47402790404E+02  0.47000000000E+01 0. -1.
         -5    1    3    3    0  502  0.33093310065E+02  0.61669492652E+02 -0.51848503581E+03  0.52320848221E+03  0.47000000000E+01 0. -1.
          5    1    4    4  503    0  0.54996697233E+02 -0.68542675385E+02 -0.21661792800E+03  0.23381221480E+03  0.47000000000E+01 0. -1.
         -5    1    4    4    0  503 -0.57852236287E+02 -0.11149687690E+02 -0.21529295448E+03  0.22325846686E+03  0.47000000000E+01 0. -1.
<mgrwt>
<rscale>  0 0.30366487E+03</rscale>
<asrwt>0</asrwt>
<pdfrwt beam="1">  1        2 0.15457500E+00 0.30366487E+03</pdfrwt>
<pdfrwt beam="2">  1       -2 0.35299062E-02 0.30366487E+03</pdfrwt>
<totfact> 0.86657301E+03</totfact>
</mgrwt>
</event>
<event>
 9    1  0.2098759E-002  0.2750040E+03  0.7818608E-02  0.1098449E+00
          1   -1    0    0  501    0  0.00000000000E+00  0.00000000000E+00  0.32354463240E+03  0.32354463240E+03  0.00000000000E+00 0. -1.
         -1   -1    0    0    0  501 -0.00000000000E+00 -0.00000000000E+00 -0.58436466388E+02  0.58436466388E+02  0.00000000000E+00 0. -1.
         36    2    1    2    0    0 -0.35527136788E-14 -0.35527136788E-14  0.26510816601E+03  0.38198109879E+03  0.27500403660E+03 0.  0.
         25    2    3    3    0    0 -0.26183541660E+02 -0.22419045097E+01  0.20324220822E+03  0.23928578168E+03  0.12353010209E+03 0.  0.
         25    2    3    3    0    0  0.26183541660E+02  0.22419045097E+01  0.61865957790E+02  0.14269531711E+03  0.12587276434E+03 0.  0.
          5    1    4    4  502    0  0.74059737742E+01  0.51603294037E+02  0.46110082201E+02  0.69756563014E+02  0.47000000000E+01 0. -1.
         -5    1    4    4    0  502 -0.33589515434E+02 -0.53845198546E+02  0.15713212602E+03  0.16952921867E+03  0.47000000000E+01 0. -1.
          5    1    5    5  503    0 -0.41422859562E+02 -0.27011815605E+02  0.44893428946E+02  0.66955219655E+02  0.47000000000E+01 0. -1.
         -5    1    5    5    0  503  0.67606401222E+02  0.29253720115E+02  0.16972528844E+02  0.75740097452E+02  0.47000000000E+01 0. -1.
<mgrwt>
<rscale>  0 0.27500404E+03</rscale>
<asrwt>0</asrwt>
<pdfrwt beam="1">  1        1 0.49776096E-01 0.27500404E+03</pdfrwt>
<pdfrwt beam="2">  1       -1 0.89902258E-02 0.27500404E+03</pdfrwt>
<totfact> 0.56858302E+03</totfact>
</mgrwt>
</event>
<event>
 9    1  0.2098759E-002  0.2734690E+03  0.7818608E-02  0.1099310E+00
          1   -1    0    0  501    0  0.00000000000E+00  0.00000000000E+00  0.59550252109E+02  0.59550252109E+02  0.00000000000E+00 0. -1.
         -1   -1    0    0    0  501 -0.00000000000E+00 -0.00000000000E+00 -0.31395872143E+03  0.31395872143E+03  0.00000000000E+00 0. -1.
         36    2    1    2    0    0  0.00000000000E+00  0.71054273576E-14 -0.25440846932E+03  0.37350897354E+03  0.27346898188E+03 0.  0.
         25    2    3    3    0    0 -0.26189231949E+01 -0.15492371019E+02 -0.71588750559E+02  0.15069287453E+03  0.13166822285E+03 0.  0.
         25    2    3    3    0    0  0.26189231949E+01  0.15492371019E+02 -0.18281971876E+03  0.22281609901E+03  0.12640052251E+03 0.  0.
          5    1    4    4  502    0  0.43644111438E+02 -0.47852312493E+02 -0.67850275339E+02  0.93916996000E+02  0.47000000000E+01 0. -1.
         -5    1    4    4    0  502 -0.46263034633E+02  0.32359941473E+02 -0.37384752203E+01  0.56775878528E+02  0.47000000000E+01 0. -1.
          5    1    5    5  503    0 -0.20740474914E+02 -0.43138774814E+02 -0.13553242609E+03  0.14381324596E+03  0.47000000000E+01 0. -1.
         -5    1    5    5    0  503  0.23359398109E+02  0.58631145834E+02 -0.47287292670E+02  0.79002853049E+02  0.47000000000E+01 0. -1.
<mgrwt>
<rscale>  0 0.27346898E+03</rscale>
<asrwt>0</asrwt>
<pdfrwt beam="1">  1        1 0.91615774E-02 0.27346898E+03</pdfrwt>
<pdfrwt beam="2">  1       -1 0.48301341E-01 0.27346898E+03</pdfrwt>
<totfact> 0.31523250E+03</totfact>
</mgrwt>
</event>
<event>
 9    1  0.2098759E-002  0.2754339E+03  0.7818608E-02  0.1098209E+00
          1   -1    0    0  501    0  0.00000000000E+00  0.00000000000E+00  0.30624801706E+03  0.30624801706E+03  0.00000000000E+00 0. -1.
         -1   -1    0    0    0  501 -0.00000000000E+00 -0.00000000000E+00 -0.61930064319E+02  0.61930064319E+02  0.00000000000E+00 0. -1.
         36    2    1    2    0    0  0.35527136788E-14  0.00000000000E+00  0.24431795274E+03  0.36817808138E+03  0.27543390782E+03 0.  0.
         25    2    3    3    0    0 -0.26225160210E+02  0.36998531358E+02  0.89740485714E+02  0.16109411325E+03  0.12586225883E+03 0.  0.
         25    2    3    3    0    0  0.26225160210E+02 -0.36998531358E+02  0.15457746703E+03  0.20708396813E+03  0.13012657758E+03 0.  0.
          5    1    4    4  502    0 -0.41668697358E+02  0.62443704831E+02  0.10351863217E+03  0.12795973515E+03  0.47000000000E+01 0.  1.
         -5    1    4    4    0  502  0.15443537148E+02 -0.25445173472E+02 -0.13778146457E+02  0.33134378106E+02  0.47000000000E+01 0.  1.
          5    1    5    5  503    0 -0.20017392456E+02 -0.41760752203E+02  0.15344088446E+03  0.16034603659E+03  0.47000000000E+01 0. -1.
         -5    1    5    5    0  503  0.46242552666E+02  0.47622208444E+01  0.11365825638E+01  0.46737931537E+02  0.47000000000E+01 0. -1.
<mgrwt>
<rscale>  0 0.27543391E+03</rscale>
<asrwt>0</asrwt>
<pdfrwt beam="1">  1        1 0.47115079E-01 0.27543391E+03</pdfrwt>
<pdfrwt beam="2">  1       -1 0.95277023E-02 0.27543391E+03</pdfrwt>
<totfact> 0.55728232E+03</totfact>
</mgrwt>
</event>
<event>
 9    1  0.2098759E-002  0.2756103E+03  0.7818608E-02  0.1098111E+00
         -2   -1    0    0    0  501 -0.00000000000E+00  0.00000000000E+00  0.75507952381E+03  0.75507952381E+03  0.00000000000E+00 0.  1.
          2   -1    0    0  501    0  0.00000000000E+00 -0.00000000000E+00 -0.25150009683E+02  0.25150009683E+02  0.00000000000E+00 0.  1.
         36    2    1    2    0    0  0.00000000000E+00  0.35527136788E-14  0.72992951413E+03  0.78022953349E+03  0.27561028526E+03 0.  0.
         25    2    3    3    0    0  0.53929426904E+01 -0.25068261414E+02  0.21984364824E+03  0.25442516593E+03  0.12547284099E+03 0.  0.
         25    2    3    3    0    0 -0.53929426904E+01  0.25068261414E+02  0.51008586589E+03  0.52580436756E+03  0.12500056323E+03 0.  0.
          5    1    4    4  502    0  0.45177379267E+02 -0.46344349548E+02  0.18831985581E+03  0.19918647651E+03  0.47000000000E+01 0. -1.
         -5    1    4    4    0  502 -0.39784436577E+02  0.21276088134E+02  0.31523792436E+02  0.55238689427E+02  0.47000000000E+01 0. -1.
          5    1    5    5  503    0 -0.57360021745E+01  0.69911946637E+02  0.19060905062E+03  0.20316122214E+03  0.47000000000E+01 0. -1.
         -5    1    5    5    0  503  0.34305948410E+00 -0.44843685224E+02  0.31947681526E+03  0.32264314542E+03  0.47000000000E+01 0. -1.
<mgrwt>
<rscale>  0 0.27561029E+03</rscale>
<asrwt>0</asrwt>
<pdfrwt beam="1">  1        2 0.38692328E-02 0.27561029E+03</pdfrwt>
<pdfrwt beam="2">  1       -2 0.11616606E+00 0.27561029E+03</pdfrwt>
<totfact> 0.13316387E+03</totfact>
</mgrwt>
</event>
<event>
 9    1  0.2098759E-002  0.2736027E+03  0.7818608E-02  0.1099235E+00
         -2   -1    0    0    0  501 -0.00000000000E+00  0.00000000000E+00  0.15383677308E+02  0.15383677308E+02  0.00000000000E+00 0. -1.
          2   -1    0    0  501    0  0.00000000000E+00 -0.00000000000E+00 -0.12165234619E+04  0.12165234619E+04  0.00000000000E+00 0. -1.
         36    2    1    2    0    0  0.00000000000E+00  0.35527136788E-14 -0.12011397846E+04  0.12319071392E+04  0.27360266355E+03 0.  0.
         25    2    3    3    0    0  0.60051747601E+01  0.26242680379E+02 -0.77417255417E+03  0.78557142586E+03  0.13059318931E+03 0.  0.
         25    2    3    3    0    0 -0.60051747601E+01 -0.26242680379E+02 -0.42696723045E+03  0.44633571338E+03  0.12723919507E+03 0.  0.
          5    1    4    4  502    0 -0.20735482546E+02 -0.37974965767E+02 -0.52581353857E+03  0.52761162383E+03  0.47000000000E+01 0.  1.
         -5    1    4    4    0  502  0.26740657306E+02  0.64217646147E+02 -0.24835901561E+03  0.25795980203E+03  0.47000000000E+01 0.  1.
          5    1    5    5  503    0  0.58420127016E+02 -0.24439353581E+02 -0.17332816529E+03  0.18459397641E+03  0.47000000000E+01 0.  1.
         -5    1    5    5    0  503 -0.64425301776E+02 -0.18033267979E+01 -0.25363906516E+03  0.26174173697E+03  0.47000000000E+01 0.  1.
<mgrwt>
<rscale>  0 0.27360266E+03</rscale>
<asrwt>0</asrwt>
<pdfrwt beam="1">  1        2 0.18715751E+00 0.27360266E+03</pdfrwt>
<pdfrwt beam="2">  1       -2 0.23667190E-02 0.27360266E+03</pdfrwt>
<totfact> 0.11768793E+04</totfact>
</mgrwt>
</event>
<event>
 9    1  0.2098759E-002  0.2750638E+03  0.7818608E-02  0.1098416E+00
         -2   -1    0    0    0  501 -0.00000000000E+00  0.00000000000E+00  0.83189095876E+01  0.83189095876E+01  0.00000000000E+00 0. -1.
          2   -1    0    0  501    0  0.00000000000E+00 -0.00000000000E+00 -0.22737381294E+04  0.22737381294E+04  0.00000000000E+00 0. -1.
         36    2    1    2    0    0  0.00000000000E+00  0.35527136788E-14 -0.22654192198E+04  0.22820570389E+04  0.27506378841E+03 0.  0.
         25    2    3    3    0    0  0.47209461511E+02 -0.75411467852E+01 -0.15510487309E+04  0.15567777096E+04  0.12457555724E+03 0.  0.
         25    2    3    3    0    0 -0.47209461511E+02  0.75411467852E+01 -0.71437048890E+03  0.72527932934E+03  0.11584173684E+03 0.  0.
          5    1    4    4  502    0  0.64405035607E+02  0.38090225653E+02 -0.63330619665E+03  0.63772854932E+03  0.47000000000E+01 0. -1.
         -5    1    4    4    0  502 -0.17195574095E+02 -0.45631372438E+02 -0.91774253422E+03  0.91904916029E+03  0.47000000000E+01 0. -1.
          5    1    5    5  503    0  0.45702806284E+00  0.16325299033E+02 -0.11041267890E+02  0.20266323293E+02  0.47000000000E+01 0. -1.
         -5    1    5    5    0  503 -0.47666489574E+02 -0.87841522482E+01 -0.70332922101E+03  0.70501300604E+03  0.47000000000E+01 0. -1.
<mgrwt>
<rscale>  0 0.27506379E+03</rscale>
<asrwt>0</asrwt>
<pdfrwt beam="1">  1        2 0.34980639E+00 0.27506379E+03</pdfrwt>
<pdfrwt beam="2">  1       -2 0.12798303E-02 0.27506379E+03</pdfrwt>
<totfact> 0.79141798E+03</totfact>
</mgrwt>
</event>
<event>
 9    1  0.2098759E-002  0.2732459E+03  0.7818608E-02  0.1099436E+00
          3   -1    0    0  501    0  0.00000000000E+00  0.00000000000E+00  0.25270142407E+02  0.25270142407E+02  0.00000000000E+00 0.  1.
         -3   -1    0    0    0  501 -0.00000000000E+00 -0.00000000000E+00 -0.73865143776E+03  0.73865143776E+03  0.00000000000E+00 0.  1.
         36    2    1    2    0    0  0.14210854715E-13 -0.10658141036E-13 -0.71338129535E+03  0.76392158017E+03  0.27324587478E+03 0.  0.
         25    2    3    3    0    0 -0.54358962184E+02  0.23459256041E+02 -0.40195927039E+03  0.42497116346E+03  0.12459535004E+03 0.  0.
         25    2    3    3    0    0  0.54358962184E+02 -0.23459256041E+02 -0.31142202496E+03  0.33895041671E+03  0.11999364105E+03 0.  0.
          5    1    4    4  502    0 -0.24496619771E+02 -0.31955692927E+02 -0.37951752367E+02  0.55530858073E+02  0.47000000000E+01 0. -1.
         -5    1    4    4    0  502 -0.29862342413E+02  0.55414948968E+02 -0.36400751802E+03  0.36944030538E+03  0.47000000000E+01 0. -1.
          5    1    5    5  503    0  0.25056519128E+02 -0.69185047104E+01 -0.75013229377E+00  0.26426266416E+02  0.47000000000E+01 0.  1.
         -5    1    5    5    0  503  0.29302443056E+02 -0.16540751331E+02 -0.31067189267E+03  0.31252415029E+03  0.47000000000E+01 0.  1.
<mgrwt>
<rscale>  0 0.27324587E+03</rscale>
<asrwt>0</asrwt>
<pdfrwt beam="1">  1        3 0.38877149E-02 0.27324587E+03</pdfrwt>
<pdfrwt beam="2">  1       -3 0.11363866E+00 0.27324587E+03</pdfrwt>
<totfact> 0.57884281E+02</totfact>
</mgrwt>
</event>
<event>
 9    1  0.2098759E-002  0.2746559E+03  0.7818608E-02  0.1098644E+00
         -1   -1    0    0    0  501 -0.00000000000E+00  0.00000000000E+00  0.13623252522E+02  0.13623252522E+02  0.00000000000E+00 0. -1.
          1   -1    0    0  501    0  0.00000000000E+00 -0.00000000000E+00 -0.13843218856E+04  0.13843218856E+04  0.00000000000E+00 0. -1.
         36    2    1    2    0    0  0.00000000000E+00  0.71054273576E-14 -0.13706986331E+04  0.13979451381E+04  0.27465590559E+03 0.  0.
         25    2    3    3    0    0  0.54746463158E+02 -0.11617177128E+02 -0.79206177349E+03  0.80337822047E+03  0.12215800454E+03 0.  0.
         25    2    3    3    0    0 -0.54746463158E+02  0.11617177128E+02 -0.57863685959E+03  0.59456691765E+03  0.12472798505E+03 0.  0.
          5    1    4    4  502    0  0.17989721550E+02 -0.65936371764E+02 -0.38826799206E+03  0.39426559431E+03  0.47000000000E+01 0.  1.
         -5    1    4    4    0  502  0.36756741609E+02  0.54319194635E+02 -0.40379378143E+03  0.40911262616E+03  0.47000000000E+01 0.  1.
          5    1    5    5  503    0 -0.19664720038E+00 -0.30964381854E+02 -0.42319013056E+03  0.42434750879E+03  0.47000000000E+01 0.  1.
         -5    1    5    5    0  503 -0.54549815958E+02  0.42581558982E+02 -0.15544672903E+03  0.17021940886E+03  0.47000000000E+01 0.  1.
<mgrwt>
<rscale>  0 0.27465591E+03</rscale>
<asrwt>0</asrwt>
<pdfrwt beam="1">  1        1 0.21297266E+00 0.27465591E+03</pdfrwt>
<pdfrwt beam="2">  1       -1 0.20958844E-02 0.27465591E+03</pdfrwt>
<totfact> 0.54745473E+03</totfact>
</mgrwt>
</event>
<event>
 9    1  0.2098759E-002  0.2744731E+03  0.7818608E-02  0.1098747E+00
         -2   -1    0    0    0  501 -0.00000000000E+00  0.00000000000E+00  0.68406227341E+03  0.68406227341E+03  0.00000000000E+00 0.  1.
          2   -1    0    0  501    0  0.00000000000E+00 -0.00000000000E+00 -0.27532383016E+02  0.27532383016E+02  0.00000000000E+00 0.  1.
         36    2    1    2    0    0 -0.71054273576E-14  0.00000000000E+00  0.65652989039E+03  0.71159465643E+03  0.27447305528E+03 0.  0.
         25    2    3    3    0    0 -0.23167301202E+02 -0.35071775657E+02  0.42926035820E+03  0.44918901602E+03  0.12545741785E+03 0.  0.
         25    2    3    3    0    0  0.23167301202E+02  0.35071775657E+02  0.22726953219E+03  0.26240564041E+03  0.12425186744E+03 0.  0.
          5    1    4    4  502    0  0.40985954459E+02 -0.30001499218E+02  0.30437206581E+03  0.30861688687E+03  0.47000000000E+01 0. -1.
         -5    1    4    4    0  502 -0.64153255661E+02 -0.50702764398E+01  0.12488829239E+03  0.14057212914E+03  0.47000000000E+01 0. -1.
          5    1    5    5  503    0 -0.22651852477E+02  0.53035726263E+01 -0.45678704966E+01  0.24170017462E+02  0.47000000000E+01 0.  1.
         -5    1    5    5    0  503  0.45819153679E+02  0.29768203031E+02  0.23183740269E+03  0.23823562294E+03  0.47000000000E+01 0.  1.
<mgrwt>
<rscale>  0 0.27447306E+03</rscale>
<asrwt>0</asrwt>
<pdfrwt beam="1">  1        2 0.42357517E-02 0.27447306E+03</pdfrwt>
<pdfrwt beam="2">  1       -2 0.10524034E+00 0.27447306E+03</pdfrwt>
<totfact> 0.14913742E+03</totfact>
</mgrwt>
</event>
<event>
 9    1  0.2098759E-002  0.2746524E+03  0.7818608E-02  0.1098646E+00
         -2   -1    0    0    0  501 -0.00000000000E+00  0.00000000000E+00  0.16915620443E+02  0.16915620443E+02  0.00000000000E+00 0. -1.
          2   -1    0    0  501    0  0.00000000000E+00 -0.00000000000E+00 -0.11148562695E+04  0.11148562695E+04  0.00000000000E+00 0. -1.
         36    2    1    2    0    0 -0.71054273576E-14 -0.17763568394E-14 -0.10979406491E+04  0.11317718899E+04  0.27465240216E+03 0.  0.
         25    2    3    3    0    0 -0.59553223138E+02  0.10539532478E+02 -0.49062870253E+03  0.51014722761E+03  0.12600000775E+03 0.  0.
         25    2    3    3    0    0  0.59553223138E+02 -0.10539532478E+02 -0.60731194652E+03  0.62162466233E+03  0.11803284418E+03 0.  0.
          5    1    4    4  502    0 -0.47175222169E+02 -0.10100874028E+01 -0.49028624450E+03  0.49257406896E+03  0.47000000000E+01 0. -1.
         -5    1    4    4    0  502 -0.12378000970E+02  0.11549619881E+02 -0.34245803335E+00  0.17573158649E+02  0.47000000000E+01 0. -1.
          5    1    5    5  503    0  0.47488621692E+02  0.21491170942E+01 -0.60028366198E+03  0.60218132878E+03  0.47000000000E+01 0.  1.
         -5    1    5    5    0  503  0.12064601446E+02 -0.12688649572E+02 -0.70282845405E+01  0.19443333552E+02  0.47000000000E+01 0.  1.
<mgrwt>
<rscale>  0 0.27465240E+03</rscale>
<asrwt>0</asrwt>
<pdfrwt beam="1">  1        2 0.17151642E+00 0.27465240E+03</pdfrwt>
<pdfrwt beam="2">  1       -2 0.26024021E-02 0.27465240E+03</pdfrwt>
<totfact> 0.11699804E+04</totfact>
</mgrwt>
</event>
<event>
 9    1  0.2098759E-002  0.2763497E+03  0.7818608E-02  0.1097699E+00
          2   -1    0    0  501    0  0.00000000000E+00  0.00000000000E+00  0.14599895023E+04  0.14599895023E+04  0.00000000000E+00 0.  1.
         -2   -1    0    0    0  501 -0.00000000000E+00 -0.00000000000E+00 -0.13077008751E+02  0.13077008751E+02  0.00000000000E+00 0.  1.
         36    2    1    2    0    0  0.00000000000E+00  0.35527136788E-14  0.14469124936E+04  0.14730665111E+04  0.27634974578E+03 0.  0.
         25    2    3    3    0    0  0.57539720284E+02 -0.63037061121E+01  0.66457938183E+03  0.67883510372E+03  0.12570118208E+03 0.  0.
         25    2    3    3    0    0 -0.57539720284E+02  0.63037061121E+01  0.78233311177E+03  0.79423140737E+03  0.12412845995E+03 0.  0.
          5    1    4    4  502    0  0.88957326453E+02  0.21743257314E+02  0.52559593628E+03  0.53353477244E+03  0.47000000000E+01 0.  1.
         -5    1    4    4    0  502 -0.31417606168E+02 -0.28046963426E+02  0.13898344555E+03  0.14530033128E+03  0.47000000000E+01 0.  1.
          5    1    5    5  503    0 -0.15129852773E+02 -0.56441927261E+02  0.41707618680E+03  0.42117601925E+03  0.47000000000E+01 0. -1.
         -5    1    5    5    0  503 -0.42409867512E+02  0.62745633373E+02  0.36525692497E+03  0.37305538812E+03  0.47000000000E+01 0. -1.
<mgrwt>
<rscale>  0 0.27634975E+03</rscale>
<asrwt>0</asrwt>
<pdfrwt beam="1">  1        2 0.22461364E+00 0.27634975E+03</pdfrwt>
<pdfrwt beam="2">  1       -2 0.20118487E-02 0.27634975E+03</pdfrwt>
<totfact> 0.10988266E+04</totfact>
</mgrwt>
</event>
<event>
 9    1  0.2098759E-002  0.2751534E+03  0.7818608E-02  0.1098366E+00
         -2   -1    0    0    0  501 -0.00000000000E+00  0.00000000000E+00  0.32428176722E+02  0.32428176722E+02  0.00000000000E+00 0.  1.
          2   -1    0    0  501    0  0.00000000000E+00 -0.00000000000E+00 -0.58366968634E+03  0.58366968634E+03  0.00000000000E+00 0.  1.
         36    2    1    2    0    0 -0.71054273576E-14 -0.17763568394E-14 -0.55124150962E+03  0.61609786307E+03  0.27515336622E+03 0.  0.
         25    2    3    3    0    0  0.28389790002E+02 -0.50915127996E+01 -0.18330745392E+03  0.22771535677E+03  0.13198771673E+03 0.  0.
         25    2    3    3    0    0 -0.28389790002E+02  0.50915127996E+01 -0.36793405570E+03  0.38838250630E+03  0.12096941007E+03 0.  0.
          5    1    4    4  502    0  0.80421024081E+02 -0.13567956290E+02 -0.10169783143E+03  0.13044604045E+03  0.47000000000E+01 0.  1.
         -5    1    4    4    0  502 -0.52031234079E+02  0.84764434900E+01 -0.81609622493E+02  0.97269316321E+02  0.47000000000E+01 0.  1.
          5    1    5    5  503    0 -0.67004553889E+02 -0.27023746677E+02 -0.24579794533E+03  0.25623936671E+03  0.47000000000E+01 0. -1.
         -5    1    5    5    0  503  0.38614763886E+02  0.32115259477E+02 -0.12213611038E+03  0.13214313958E+03  0.47000000000E+01 0. -1.
<mgrwt>
<rscale>  0 0.27515337E+03</rscale>
<asrwt>0</asrwt>
<pdfrwt beam="1">  1        2 0.89795329E-01 0.27515337E+03</pdfrwt>
<pdfrwt beam="2">  1       -2 0.49889507E-02 0.27515337E+03</pdfrwt>
<totfact> 0.10188531E+04</totfact>
</mgrwt>
</event>
<event>
 9    1  0.2098759E-002  0.2755905E+03  0.7818608E-02  0.1098122E+00
         -2   -1    0    0    0  501 -0.00000000000E+00  0.00000000000E+00  0.53076329924E+01  0.53076329924E+01  0.00000000000E+00 0. -1.
          2   -1    0    0  501    0  0.00000000000E+00 -0.00000000000E+00 -0.35774015797E+04  0.35774015797E+04  0.00000000000E+00 0. -1.
         36    2    1    2    0    0 -0.71054273576E-14  0.00000000000E+00 -0.35720939467E+04  0.35827092127E+04  0.27559052706E+03 0.  0.
         25    2    3    3    0    0  0.49100476178E+02  0.60622221125E+01 -0.21822499692E+04  0.21864220229E+04  0.12561340159E+03 0.  0.
         25    2    3    3    0    0 -0.49100476178E+02 -0.60622221125E+01 -0.13898439775E+04  0.13962871898E+04  0.12451516931E+03 0.  0.
          5    1    4    4  502    0  0.91951314938E+01  0.32709504731E+02 -0.16175333043E+03  0.16535021031E+03  0.47000000000E+01 0. -1.
         -5    1    4    4    0  502  0.39905344685E+02 -0.26647282618E+02 -0.20204966388E+04  0.20210718126E+04  0.47000000000E+01 0. -1.
          5    1    5    5  503    0 -0.56031786580E+02 -0.44300974210E+02 -0.45258362972E+03  0.45820974381E+03  0.47000000000E+01 0. -1.
         -5    1    5    5    0  503  0.69313104017E+01  0.38238752098E+02 -0.93726034776E+03  0.93807744601E+03  0.47000000000E+01 0. -1.
<mgrwt>
<rscale>  0 0.27559053E+03</rscale>
<asrwt>0</asrwt>
<pdfrwt beam="1">  1        2 0.55036872E+00 0.27559053E+03</pdfrwt>
<pdfrwt beam="2">  1       -2 0.81656004E-03 0.27559053E+03</pdfrwt>
<totfact> 0.25751438E+03</totfact>
</mgrwt>
</event>
<event>
 9    1  0.2098759E-002  0.2751760E+03  0.7818608E-02  0.1098353E+00
          2   -1    0    0  501    0  0.00000000000E+00  0.00000000000E+00  0.38130861292E+02  0.38130861292E+02  0.00000000000E+00 0. -1.
         -2   -1    0    0    0  501 -0.00000000000E+00 -0.00000000000E+00 -0.49646039784E+03  0.49646039784E+03  0.00000000000E+00 0. -1.
         36    2    1    2    0    0  0.00000000000E+00  0.00000000000E+00 -0.45832953655E+03  0.53459125914E+03  0.27517603506E+03 0.  0.
         25    2    3    3    0    0 -0.45206355479E+02 -0.33679828955E+01 -0.30027250937E+03  0.32804434427E+03  0.12407479213E+03 0.  0.
         25    2    3    3    0    0  0.45206355479E+02  0.33679828955E+01 -0.15805702719E+03  0.20654691487E+03  0.12499858525E+03 0.  0.
          5    1    4    4  502    0  0.41166880105E+02 -0.15937366744E+02 -0.11168548984E+03  0.12018506695E+03  0.47000000000E+01 0. -1.
         -5    1    4    4    0  502 -0.86373235584E+02  0.12569383849E+02 -0.18858701952E+03  0.20785927732E+03  0.47000000000E+01 0. -1.
          5    1    5    5  503    0 -0.36375818016E+02 -0.18805630065E+02 -0.85986847078E+02  0.95355543777E+02  0.47000000000E+01 0. -1.
         -5    1    5    5    0  503  0.81582173496E+02  0.22173612961E+02 -0.72070180108E+02  0.11119137109E+03  0.47000000000E+01 0. -1.
<mgrwt>
<rscale>  0 0.27517604E+03</rscale>
<asrwt>0</asrwt>
<pdfrwt beam="1">  1        2 0.58662865E-02 0.27517604E+03</pdfrwt>
<pdfrwt beam="2">  1       -2 0.76378521E-01 0.27517604E+03</pdfrwt>
<totfact> 0.20038303E+03</totfact>
</mgrwt>
</event>
<event>
 9    1  0.2098759E-002  0.2757021E+03  0.7818608E-02  0.1098060E+00
         -2   -1    0    0    0  501 -0.00000000000E+00  0.00000000000E+00  0.40648620265E+02  0.40648620265E+02  0.00000000000E+00 0.  1.
          2   -1    0    0  501    0  0.00000000000E+00 -0.00000000000E+00 -0.46749216388E+03  0.46749216388E+03  0.00000000000E+00 0.  1.
         36    2    1    2    0    0  0.00000000000E+00  0.00000000000E+00 -0.42684354361E+03  0.50814078414E+03  0.27570209608E+03 0.  0.
         25    2    3    3    0    0  0.25513628213E+02  0.49363729948E+02 -0.28603175508E+03  0.31658967114E+03  0.12380279439E+03 0.  0.
         25    2    3    3    0    0 -0.25513628213E+02 -0.49363729948E+02 -0.14081178853E+03  0.19155111300E+03  0.11737182815E+03 0.  0.
          5    1    4    4  502    0  0.66909086771E+02  0.50608043025E+02 -0.12770109919E+03  0.15286484438E+03  0.47000000000E+01 0. -1.
         -5    1    4    4    0  502 -0.41395458558E+02 -0.12443130766E+01 -0.15833065589E+03  0.16372482676E+03  0.47000000000E+01 0. -1.
          5    1    5    5  503    0  0.23833416340E+02 -0.20394623218E+00 -0.11433231660E+03  0.11688473788E+03  0.47000000000E+01 0.  1.
         -5    1    5    5    0  503 -0.49347044552E+02 -0.49159783716E+02 -0.26479471929E+02  0.74666375127E+02  0.47000000000E+01 0.  1.
<mgrwt>
<rscale>  0 0.27570210E+03</rscale>
<asrwt>0</asrwt>
<pdfrwt beam="1">  1        2 0.71921875E-01 0.27570210E+03</pdfrwt>
<pdfrwt beam="2">  1       -2 0.62536336E-02 0.27570210E+03</pdfrwt>
<totfact> 0.92671841E+03</totfact>
</mgrwt>
</event>
<event>
 9    1  0.2098759E-002  0.2762585E+03  0.7818608E-02  0.1097750E+00
          2   -1    0    0  501    0  0.00000000000E+00  0.00000000000E+00  0.28513122253E+03  0.28513122253E+03  0.00000000000E+00 0.  1.
         -2   -1    0    0    0  501 -0.00000000000E+00 -0.00000000000E+00 -0.66915478692E+02  0.66915478692E+02  0.00000000000E+00 0.  1.
         36    2    1    2    0    0 -0.71054273576E-14  0.00000000000E+00  0.21821574384E+03  0.35204670122E+03  0.27625851839E+03 0.  0.
         25    2    3    3    0    0  0.34039719639E+02 -0.11686866177E+02  0.17035414645E+03  0.21451054144E+03  0.12529545810E+03 0.  0.
         25    2    3    3    0    0 -0.34039719639E+02  0.11686866177E+02  0.47861597388E+02  0.13753615979E+03  0.12381509355E+03 0.  0.
          5    1    4    4  502    0 -0.17037033431E+02  0.46699725736E+02  0.88667804712E+02  0.10176047604E+03  0.47000000000E+01 0. -1.
         -5    1    4    4    0  502  0.51076753070E+02 -0.58386591913E+02  0.81686341738E+02  0.11275006539E+03  0.47000000000E+01 0. -1.
          5    1    5    5  503    0 -0.55731113295E+02  0.51134132916E+02  0.62256735432E+01  0.76036212092E+02  0.47000000000E+01 0. -1.
         -5    1    5    5    0  503  0.21691393656E+02 -0.39447266740E+02  0.41635923845E+02  0.61499947694E+02  0.47000000000E+01 0. -1.
<mgrwt>
<rscale>  0 0.27625852E+03</rscale>
<asrwt>0</asrwt>
<pdfrwt beam="1">  1        2 0.43866341E-01 0.27625852E+03</pdfrwt>
<pdfrwt beam="2">  1       -2 0.10294689E-01 0.27625852E+03</pdfrwt>
<totfact> 0.72661373E+03</totfact>
</mgrwt>
</event>
<event>
 9    1  0.2098759E-002  0.2754188E+03  0.7818608E-02  0.1098218E+00
          2   -1    0    0  501    0  0.00000000000E+00  0.00000000000E+00  0.13730431880E+04  0.13730431880E+04  0.00000000000E+00 0.  1.
         -2   -1    0    0    0  501 -0.00000000000E+00 -0.00000000000E+00 -0.13811572258E+02  0.13811572258E+02  0.00000000000E+00 0.  1.
         36    2    1    2    0    0 -0.71054273576E-14  0.71054273576E-14  0.13592316157E+04  0.13868547602E+04  0.27541884615E+03 0.  0.
         25    2    3    3    0    0  0.45284470521E+02  0.19999592797E+02  0.55381273903E+03  0.56990809596E+03  0.12504407598E+03 0.  0.
         25    2    3    3    0    0 -0.45284470521E+02 -0.19999592797E+02  0.80541887670E+03  0.81694666429E+03  0.12748183546E+03 0.  0.
          5    1    4    4  502    0  0.97369934421E+01 -0.50300781128E+02  0.29060380828E+03  0.29512309467E+03  0.47000000000E+01 0. -1.
         -5    1    4    4    0  502  0.35547477078E+02  0.70300373925E+02  0.26320893076E+03  0.27478500128E+03  0.47000000000E+01 0. -1.
          5    1    5    5  503    0 -0.65114798952E+02 -0.50038930625E+02  0.71179415585E+03  0.71653111720E+03  0.47000000000E+01 0. -1.
         -5    1    5    5    0  503  0.19830328431E+02  0.30039337828E+02  0.93624720850E+02  0.10041554709E+03  0.47000000000E+01 0. -1.
<mgrwt>
<rscale>  0 0.27541885E+03</rscale>
<asrwt>0</asrwt>
<pdfrwt beam="1">  1        2 0.21123731E+00 0.27541885E+03</pdfrwt>
<pdfrwt beam="2">  1       -2 0.21248584E-02 0.27541885E+03</pdfrwt>
<totfact> 0.11299126E+04</totfact>
</mgrwt>
</event>
<event>
 9    1  0.2098759E-002  0.2745817E+03  0.7818608E-02  0.1098686E+00
         -2   -1    0    0    0  501 -0.00000000000E+00  0.00000000000E+00  0.48606381893E+01  0.48606381893E+01  0.00000000000E+00 0. -1.
          2   -1    0    0  501    0  0.00000000000E+00 -0.00000000000E+00 -0.38778389632E+04  0.38778389632E+04  0.00000000000E+00 0. -1.
         36    2    1    2    0    0  0.14210854715E-13 -0.14210854715E-13 -0.38729783250E+04  0.38826996014E+04  0.27458166112E+03 0.  0.
         25    2    3    3    0    0  0.35275877877E+02 -0.43461117819E+02 -0.17694571058E+04  0.17748315213E+04  0.12615555249E+03 0.  0.
         25    2    3    3    0    0 -0.35275877877E+02  0.43461117819E+02 -0.21035212192E+04  0.21078680801E+04  0.12317900411E+03 0.  0.
          5    1    4    4  502    0 -0.42431380150E+02 -0.67169402739E+01 -0.92227239059E+03  0.92328435043E+03  0.47000000000E+01 0.  1.
         -5    1    4    4    0  502  0.77707258027E+02 -0.36744177545E+02 -0.84718471522E+03  0.85154717088E+03  0.47000000000E+01 0.  1.
          5    1    5    5  503    0 -0.35639090594E+02 -0.36766662037E+02 -0.10657281051E+04  0.10669678609E+04  0.47000000000E+01 0.  1.
         -5    1    5    5    0  503  0.36321271727E+00  0.80227779856E+02 -0.10377931141E+04  0.10409002192E+04  0.47000000000E+01 0.  1.
<mgrwt>
<rscale>  0 0.27458166E+03</rscale>
<asrwt>0</asrwt>
<pdfrwt beam="1">  1        2 0.59658885E+00 0.27458166E+03</pdfrwt>
<pdfrwt beam="2">  1       -2 0.74779270E-03 0.27458166E+03</pdfrwt>
<totfact> 0.17959034E+03</totfact>
</mgrwt>
</event>
<event>
 9    1  0.2098759E-002  0.2745821E+03  0.7818608E-02  0.1098685E+00
         -2   -1    0    0    0  501 -0.00000000000E+00  0.00000000000E+00  0.50839981685E+02  0.50839981685E+02  0.00000000000E+00 0. -1.
          2   -1    0    0  501    0  0.00000000000E+00 -0.00000000000E+00 -0.37074834703E+03  0.37074834703E+03  0.00000000000E+00 0. -1.
         36    2    1    2    0    0  0.14210854715E-13  0.71054273576E-14 -0.31990836535E+03  0.42158832872E+03  0.27458214926E+03 0.  0.
         25    2    3    3    0    0  0.35077831554E+02  0.44944072061E+02 -0.14273218180E+03  0.19685187408E+03  0.12299496221E+03 0.  0.
         25    2    3    3    0    0 -0.35077831554E+02 -0.44944072061E+02 -0.17717618355E+03  0.22473645464E+03  0.12595495285E+03 0.  0.
          5    1    4    4  502    0  0.17965546743E+02  0.86081928444E+02 -0.11221544122E+03  0.14264380296E+03  0.47000000000E+01 0.  1.
         -5    1    4    4    0  502  0.17112284811E+02 -0.41137856383E+02 -0.30516740583E+02  0.54208071124E+02  0.47000000000E+01 0.  1.
          5    1    5    5  503    0  0.10316030981E+01 -0.88158867284E+01 -0.17297813335E+03  0.17326946841E+03  0.47000000000E+01 0.  1.
         -5    1    5    5    0  503 -0.36109434652E+02 -0.36128185333E+02 -0.41980501963E+01  0.51466986231E+02  0.47000000000E+01 0.  1.
<mgrwt>
<rscale>  0 0.27458215E+03</rscale>
<asrwt>0</asrwt>
<pdfrwt beam="1">  1        2 0.57038210E-01 0.27458215E+03</pdfrwt>
<pdfrwt beam="2">  1       -2 0.78215353E-02 0.27458215E+03</pdfrwt>
<totfact> 0.84407274E+03</totfact>
</mgrwt>
</event>
<event>
 9    1  0.2098759E-002  0.2743914E+03  0.7818608E-02  0.1098792E+00
         -2   -1    0    0    0  501 -0.00000000000E+00  0.00000000000E+00  0.14194177287E+02  0.14194177287E+02  0.00000000000E+00 0.  1.
          2   -1    0    0  501    0  0.00000000000E+00 -0.00000000000E+00 -0.13260827491E+04  0.13260827491E+04  0.00000000000E+00 0.  1.
         36    2    1    2    0    0  0.71054273576E-14  0.35527136788E-14 -0.13118885718E+04  0.13402769264E+04  0.27439135291E+03 0.  0.
         25    2    3    3    0    0 -0.43669016228E+02  0.24469519414E+02 -0.57501086966E+03  0.59118784180E+03  0.12790552649E+03 0.  0.
         25    2    3    3    0    0  0.43669016228E+02 -0.24469519414E+02 -0.73687770214E+03  0.74908908458E+03  0.12505985911E+03 0.  0.
          5    1    4    4  502    0 -0.78049633349E+02 -0.14983734231E+02 -0.42098332674E+03  0.42844522281E+03  0.47000000000E+01 0.  1.
         -5    1    4    4    0  502  0.34380617121E+02  0.39453253645E+02 -0.15402754292E+03  0.16274261898E+03  0.47000000000E+01 0.  1.
          5    1    5    5  503    0  0.26867991293E+02 -0.75565965543E+02 -0.41289601527E+03  0.42063917260E+03  0.47000000000E+01 0.  1.
         -5    1    5    5    0  503  0.16801024935E+02  0.51096446128E+02 -0.32398168688E+03  0.32844991198E+03  0.47000000000E+01 0.  1.
<mgrwt>
<rscale>  0 0.27439135E+03</rscale>
<asrwt>0</asrwt>
<pdfrwt beam="1">  1        2 0.20401272E+00 0.27439135E+03</pdfrwt>
<pdfrwt beam="2">  1       -2 0.21837197E-02 0.27439135E+03</pdfrwt>
<totfact> 0.11514693E+04</totfact>
</mgrwt>
</event>
<event>
 9    1  0.2098759E-002  0.2750999E+03  0.7818608E-02  0.1098396E+00
          2   -1    0    0  501    0  0.00000000000E+00  0.00000000000E+00  0.94850040550E+03  0.94850040550E+03  0.00000000000E+00 0.  1.
         -2   -1    0    0    0  501 -0.00000000000E+00 -0.00000000000E+00 -0.19947271583E+02  0.19947271583E+02  0.00000000000E+00 0.  1.
         36    2    1    2    0    0  0.14210854715E-13  0.00000000000E+00  0.92855313392E+03  0.96844767708E+03  0.27509994682E+03 0.  0.
         25    2    3    3    0    0  0.40430872419E+02  0.39430146246E+02  0.50840289470E+03  0.52648312942E+03  0.12458567473E+03 0.  0.
         25    2    3    3    0    0 -0.40430872419E+02 -0.39430146246E+02  0.42015023921E+03  0.44196454766E+03  0.12496817994E+03 0.  0.
          5    1    4    4  502    0  0.83342191798E+02  0.95145416973E+01  0.32817556252E+03  0.33875911393E+03  0.47000000000E+01 0.  1.
         -5    1    4    4    0  502 -0.42911319378E+02  0.29915604549E+02  0.18022733219E+03  0.18772401549E+03  0.47000000000E+01 0.  1.
          5    1    5    5  503    0  0.34536083493E+02 -0.43061710699E+02  0.24788278646E+03  0.25399806656E+03  0.47000000000E+01 0. -1.
         -5    1    5    5    0  503 -0.74966955913E+02  0.36315644534E+01  0.17226745275E+03  0.18796648110E+03  0.47000000000E+01 0. -1.
<mgrwt>
<rscale>  0 0.27509995E+03</rscale>
<asrwt>0</asrwt>
<pdfrwt beam="1">  1        2 0.14592310E+00 0.27509995E+03</pdfrwt>
<pdfrwt beam="2">  1       -2 0.30688118E-02 0.27509995E+03</pdfrwt>
<totfact> 0.11546321E+04</totfact>
</mgrwt>
</event>
<event>
 9    1  0.2098759E-002  0.2754976E+03  0.7818608E-02  0.1098174E+00
         -2   -1    0    0    0  501 -0.00000000000E+00  0.00000000000E+00  0.14326203177E+02  0.14326203177E+02  0.00000000000E+00 0.  1.
          2   -1    0    0  501    0  0.00000000000E+00 -0.00000000000E+00 -0.13244775628E+04  0.13244775628E+04  0.00000000000E+00 0.  1.
         36    2    1    2    0    0  0.71054273576E-14  0.71054273576E-14 -0.13101513596E+04  0.13388037660E+04  0.27549762008E+03 0.  0.
         25    2    3    3    0    0  0.23921128954E+02  0.39426832133E+02 -0.47908501629E+03  0.49729160810E+03  0.12509914129E+03 0.  0.
         25    2    3    3    0    0 -0.23921128954E+02 -0.39426832133E+02 -0.83106634333E+03  0.84151215787E+03  0.12387392513E+03 0.  0.
          5    1    4    4  502    0 -0.34789997654E+01  0.76155519364E+02 -0.38538702173E+03  0.39288295088E+03  0.47000000000E+01 0.  1.
         -5    1    4    4    0  502  0.27400128720E+02 -0.36728687231E+02 -0.93697994554E+02  0.10440865722E+03  0.47000000000E+01 0.  1.
          5    1    5    5  503    0  0.43472713488E+01  0.29174346880E+02 -0.54901635594E+03  0.54982823716E+03  0.47000000000E+01 0. -1.
         -5    1    5    5    0  503 -0.28268400303E+02 -0.68601179013E+02 -0.28204998739E+03  0.29168392071E+03  0.47000000000E+01 0. -1.
<mgrwt>
<rscale>  0 0.27549762E+03</rscale>
<asrwt>0</asrwt>
<pdfrwt beam="1">  1        2 0.20376582E+00 0.27549762E+03</pdfrwt>
<pdfrwt beam="2">  1       -2 0.22040308E-02 0.27549762E+03</pdfrwt>
<totfact> 0.11382828E+04</totfact>
</mgrwt>
</event>
<event>
 9    1  0.2098759E-002  0.2755120E+03  0.7818608E-02  0.1098166E+00
          1   -1    0    0  501    0  0.00000000000E+00  0.00000000000E+00  0.93104723222E+03  0.93104723222E+03  0.00000000000E+00 0.  1.
         -1   -1    0    0    0  501 -0.00000000000E+00 -0.00000000000E+00 -0.20382125440E+02  0.20382125440E+02  0.00000000000E+00 0.  1.
         36    2    1    2    0    0 -0.71054273576E-14  0.00000000000E+00  0.91066510678E+03  0.95142935766E+03  0.27551204313E+03 0.  0.
         25    2    3    3    0    0 -0.24543758366E+02  0.27303924201E+02  0.29669698222E+03  0.32393236532E+03  0.12472039804E+03 0.  0.
         25    2    3    3    0    0  0.24543758366E+02 -0.27303924201E+02  0.61396812456E+03  0.62749699234E+03  0.12428884534E+03 0.  0.
          5    1    4    4  502    0 -0.20696706926E+02 -0.45953832787E+02  0.17083506469E+03  0.17817636699E+03  0.47000000000E+01 0. -1.
         -5    1    4    4    0  502 -0.38470514400E+01  0.73257756987E+02  0.12586191753E+03  0.14575599833E+03  0.47000000000E+01 0. -1.
          5    1    5    5  503    0  0.52744991786E+02  0.28582695615E+02  0.20196988796E+03  0.21074375504E+03  0.47000000000E+01 0. -1.
         -5    1    5    5    0  503 -0.28201233420E+02 -0.55886619815E+02  0.41199823660E+03  0.41675323730E+03  0.47000000000E+01 0. -1.
<mgrwt>
<rscale>  0 0.27551204E+03</rscale>
<asrwt>0</asrwt>
<pdfrwt beam="1">  1        1 0.14323800E+00 0.27551204E+03</pdfrwt>
<pdfrwt beam="2">  1       -1 0.31357123E-02 0.27551204E+03</pdfrwt>
<totfact> 0.63723913E+03</totfact>
</mgrwt>
</event>
<event>
 9    1  0.2098759E-002  0.2750808E+03  0.7818608E-02  0.1098406E+00
          2   -1    0    0  501    0  0.00000000000E+00  0.00000000000E+00  0.98394938599E+03  0.98394938599E+03  0.00000000000E+00 0. -1.
         -2   -1    0    0    0  501 -0.00000000000E+00 -0.00000000000E+00 -0.19225953099E+02  0.19225953099E+02  0.00000000000E+00 0. -1.
         36    2    1    2    0    0  0.71054273576E-14  0.71054273576E-14  0.96472343289E+03  0.10031753391E+04  0.27508082264E+03 0.  0.
         25    2    3    3    0    0  0.42479666719E+02  0.41686260622E+02  0.35021299345E+03  0.37424719949E+03  0.11776909244E+03 0.  0.
         25    2    3    3    0    0 -0.42479666719E+02 -0.41686260622E+02  0.61451043944E+03  0.62892813960E+03  0.11993856006E+03 0.  0.
          5    1    4    4  502    0  0.35253794118E+02  0.77523331534E+02  0.30043900404E+03  0.31231135439E+03  0.47000000000E+01 0.  1.
         -5    1    4    4    0  502  0.72258726007E+01 -0.35837070912E+02  0.49773989412E+02  0.61935845101E+02  0.47000000000E+01 0.  1.
          5    1    5    5  503    0  0.19667054977E+02  0.24944266468E+02  0.29202729724E+03  0.29378740921E+03  0.47000000000E+01 0.  1.
         -5    1    5    5    0  503 -0.62146721696E+02 -0.66630527090E+02  0.32248314220E+03  0.33514073038E+03  0.47000000000E+01 0.  1.
<mgrwt>
<rscale>  0 0.27508082E+03</rscale>
<asrwt>0</asrwt>
<pdfrwt beam="1">  1        2 0.15137679E+00 0.27508082E+03</pdfrwt>
<pdfrwt beam="2">  1       -2 0.29578397E-02 0.27508082E+03</pdfrwt>
<totfact> 0.11592407E+04</totfact>
</mgrwt>
</event>
<event>
 9    1  0.2098759E-002  0.2738034E+03  0.7818608E-02  0.1099122E+00
         -2   -1    0    0    0  501 -0.00000000000E+00  0.00000000000E+00  0.64092506782E+02  0.64092506782E+02  0.00000000000E+00 0. -1.
          2   -1    0    0  501    0  0.00000000000E+00 -0.00000000000E+00 -0.29242223406E+03  0.29242223406E+03  0.00000000000E+00 0. -1.
         36    2    1    2    0    0 -0.17763568394E-14  0.00000000000E+00 -0.22832972728E+03  0.35651474084E+03  0.27380338946E+03 0.  0.
         25    2    3    3    0    0 -0.12798561663E+02 -0.46537748860E+02 -0.15997868227E+03  0.20241910607E+03  0.11423988125E+03 0.  0.
         25    2    3    3    0    0  0.12798561663E+02  0.46537748860E+02 -0.68351045003E+02  0.15409563477E+03  0.12939874054E+03 0.  0.
          5    1    4    4  502    0 -0.41243342950E+02 -0.73023091891E+02 -0.11987714294E+03  0.14637624359E+03  0.47000000000E+01 0. -1.
         -5    1    4    4    0  502  0.28444781287E+02  0.26485343031E+02 -0.40101539332E+02  0.56042862478E+02  0.47000000000E+01 0. -1.
          5    1    5    5  503    0  0.18709739911E+02  0.81142831260E+02 -0.81213638223E+02  0.11641287930E+03  0.47000000000E+01 0.  1.
         -5    1    5    5    0  503 -0.59111782486E+01 -0.34605082400E+02  0.12862593220E+02  0.37682755479E+02  0.47000000000E+01 0.  1.
<mgrwt>
<rscale>  0 0.27380339E+03</rscale>
<asrwt>0</asrwt>
<pdfrwt beam="1">  1        2 0.44988037E-01 0.27380339E+03</pdfrwt>
<pdfrwt beam="2">  1       -2 0.98603854E-02 0.27380339E+03</pdfrwt>
<totfact> 0.75706626E+03</totfact>
</mgrwt>
</event>
<event>
 8    1  0.2098759E-002  0.3319705E+03  0.7818608E-02  0.1070268E+00
         -2   -1    0    0    0  501 -0.00000000000E+00  0.00000000000E+00  0.24620552503E+03  0.24620552503E+03  0.00000000000E+00 0. -1.
          2   -1    0    0  501    0  0.00000000000E+00 -0.00000000000E+00 -0.11190288887E+03  0.11190288887E+03  0.00000000000E+00 0. -1.
         25    2    1    2    0    0  0.39587926355E+02 -0.50472683316E+02  0.16605824367E+03  0.21562052355E+03  0.12166418623E+03 0.  0.
         25    2    1    2    0    0 -0.39587926355E+02  0.50472683316E+02 -0.31755607510E+02  0.14248789035E+03  0.12320586274E+03 0.  0.
          5    1    3    3  502    0 -0.27707995312E+02  0.23932864830E+02  0.39698694870E+02  0.54208776020E+02  0.47000000000E+01 0.  1.
         -5    1    3    3    0  502  0.67295921667E+02 -0.74405548146E+02  0.12635954880E+03  0.16141174753E+03  0.47000000000E+01 0.  1.
          5    1    4    4  503    0 -0.37294208181E+02  0.19037275880E+02  0.43623342688E+02  0.60649500114E+02  0.47000000000E+01 0. -1.
         -5    1    4    4    0  503 -0.22937181743E+01  0.31435407437E+02 -0.75378950198E+02  0.81838390238E+02  0.47000000000E+01 0. -1.
<mgrwt>
<rscale>  0 0.33197054E+03</rscale>
<asrwt>0</asrwt>
<pdfrwt beam="1">  1        2 0.17215829E-01 0.33197054E+03</pdfrwt>
<pdfrwt beam="2">  1       -2 0.37877773E-01 0.33197054E+03</pdfrwt>
<totfact> 0.21955676E+03</totfact>
</mgrwt>
</event>
<event>
 9    1  0.2098759E-002  0.2750592E+03  0.7818608E-02  0.1098419E+00
          2   -1    0    0  501    0  0.00000000000E+00  0.00000000000E+00  0.52068021352E+02  0.52068021352E+02  0.00000000000E+00 0.  1.
         -2   -1    0    0    0  501 -0.00000000000E+00 -0.00000000000E+00 -0.36326313325E+03  0.36326313325E+03  0.00000000000E+00 0.  1.
         36    2    1    2    0    0  0.71054273576E-14 -0.71054273576E-14 -0.31119511190E+03  0.41533115461E+03  0.27505921238E+03 0.  0.
         25    2    3    3    0    0 -0.38951238065E+02  0.32958110066E+02 -0.12842028881E+03  0.18667811920E+03  0.12551300189E+03 0.  0.
         25    2    3    3    0    0  0.38951238065E+02 -0.32958110066E+02 -0.18277482309E+03  0.22865303540E+03  0.12756229333E+03 0.  0.
          5    1    4    4  502    0  0.29304401497E+02  0.37216142042E+02 -0.82213245267E+01  0.48305997067E+02  0.47000000000E+01 0. -1.
         -5    1    4    4    0  502 -0.68255639563E+02 -0.42580319761E+01 -0.12019896429E+03  0.13837212213E+03  0.47000000000E+01 0. -1.
          5    1    5    5  503    0  0.30430777826E+02  0.17706614796E+01  0.10085339665E+02  0.32449523222E+02  0.47000000000E+01 0. -1.
         -5    1    5    5    0  503  0.85204602395E+01 -0.34728771546E+02 -0.19286016275E+03  0.19620351218E+03  0.47000000000E+01 0. -1.
<mgrwt>
<rscale>  0 0.27505921E+03</rscale>
<asrwt>0</asrwt>
<pdfrwt beam="1">  1        2 0.80104650E-02 0.27505921E+03</pdfrwt>
<pdfrwt beam="2">  1       -2 0.55886635E-01 0.27505921E+03</pdfrwt>
<totfact> 0.25924663E+03</totfact>
</mgrwt>
</event>
<event>
 9    1  0.2098759E-002  0.2754243E+03  0.7818608E-02  0.1098215E+00
          2   -1    0    0  501    0  0.00000000000E+00  0.00000000000E+00  0.62843874592E+03  0.62843874592E+03  0.00000000000E+00 0. -1.
         -2   -1    0    0    0  501 -0.00000000000E+00 -0.00000000000E+00 -0.30177378125E+02  0.30177378125E+02  0.00000000000E+00 0. -1.
         36    2    1    2    0    0  0.71054273576E-14  0.00000000000E+00  0.59826136779E+03  0.65861612404E+03  0.27542428117E+03 0.  0.
         25    2    3    3    0    0  0.32022249390E+02 -0.48717086190E+02  0.36904911987E+03  0.39181474667E+03  0.11799476210E+03 0.  0.
         25    2    3    3    0    0 -0.32022249390E+02  0.48717086190E+02  0.22921224792E+03  0.26680137737E+03  0.12347445659E+03 0.  0.
          5    1    4    4  502    0  0.72604189449E+02 -0.24188826749E+02  0.16025209214E+03  0.17764934760E+03  0.47000000000E+01 0.  1.
         -5    1    4    4    0  502 -0.40581940059E+02 -0.24528259441E+02  0.20879702773E+03  0.21416539907E+03  0.47000000000E+01 0.  1.
          5    1    5    5  503    0 -0.13550716806E+02 -0.17876065336E+02 -0.42244098696E+01  0.23304747941E+02  0.47000000000E+01 0.  1.
         -5    1    5    5    0  503 -0.18471532585E+02  0.66593151526E+02  0.23343665779E+03  0.24349662943E+03  0.47000000000E+01 0.  1.
<mgrwt>
<rscale>  0 0.27542428E+03</rscale>
<asrwt>0</asrwt>
<pdfrwt beam="1">  1        2 0.96682874E-01 0.27542428E+03</pdfrwt>
<pdfrwt beam="2">  1       -2 0.46426740E-02 0.27542428E+03</pdfrwt>
<totfact> 0.10426623E+04</totfact>
</mgrwt>
</event>
<event>
 9    1  0.2098759E-002  0.2743831E+03  0.7818608E-02  0.1098797E+00
          2   -1    0    0  501    0  0.00000000000E+00  0.00000000000E+00  0.19466878030E+04  0.19466878030E+04  0.00000000000E+00 0.  1.
         -2   -1    0    0    0  501 -0.00000000000E+00 -0.00000000000E+00 -0.96684856905E+01  0.96684856905E+01  0.00000000000E+00 0.  1.
         36    2    1    2    0    0  0.00000000000E+00 -0.35527136788E-14  0.19370193173E+04  0.19563562887E+04  0.27438311294E+03 0.  0.
         25    2    3    3    0    0  0.19513940035E+02  0.24261173836E+02  0.13331312658E+04  0.13394037762E+04  0.12567460141E+03 0.  0.
         25    2    3    3    0    0 -0.19513940035E+02 -0.24261173836E+02  0.60388805153E+03  0.61695251251E+03  0.12239373145E+03 0.  0.
          5    1    4    4  502    0  0.31148180073E+02  0.69811501799E+02  0.10014300939E+04  0.10043546077E+04  0.47000000000E+01 0.  1.
         -5    1    4    4    0  502 -0.11634240038E+02 -0.45550327964E+02  0.33170117183E+03  0.33504916850E+03  0.47000000000E+01 0.  1.
          5    1    5    5  503    0  0.36894160048E+02  0.10860159440E+02  0.80463919567E+02  0.89306519699E+02  0.47000000000E+01 0. -1.
         -5    1    5    5    0  503 -0.56408100084E+02 -0.35121333276E+02  0.52342413196E+03  0.52764599281E+03  0.47000000000E+01 0. -1.
<mgrwt>
<rscale>  0 0.27438311E+03</rscale>
<asrwt>0</asrwt>
<pdfrwt beam="1">  1        2 0.29949012E+00 0.27438311E+03</pdfrwt>
<pdfrwt beam="2">  1       -2 0.14874609E-02 0.27438311E+03</pdfrwt>
<totfact> 0.94653263E+03</totfact>
</mgrwt>
</event>
<event>
 9    1  0.2098759E-002  0.2744835E+03  0.7818608E-02  0.1098741E+00
         -1   -1    0    0    0  501 -0.00000000000E+00  0.00000000000E+00  0.35873314923E+03  0.35873314923E+03  0.00000000000E+00 0. -1.
          1   -1    0    0  501    0  0.00000000000E+00 -0.00000000000E+00 -0.52505057402E+02  0.52505057402E+02  0.00000000000E+00 0. -1.
         36    2    1    2    0    0  0.00000000000E+00  0.35527136788E-14  0.30622809182E+03  0.41123820663E+03  0.27448354845E+03 0.  0.
         25    2    3    3    0    0  0.11959970896E+02  0.29934057687E+02  0.86928056553E+02  0.15353821076E+03  0.12238630003E+03 0.  0.
         25    2    3    3    0    0 -0.11959970896E+02 -0.29934057687E+02  0.21930003527E+03  0.25769999587E+03  0.13144464115E+03 0.  0.
          5    1    4    4  502    0  0.29218634091E+02 -0.70436109506E+01  0.10451692969E+03  0.10885412085E+03  0.47000000000E+01 0.  1.
         -5    1    4    4    0  502 -0.17258663196E+02  0.36977668638E+02 -0.17588873138E+02  0.44684089914E+02  0.47000000000E+01 0.  1.
          5    1    5    5  503    0 -0.57046293785E+02  0.84090184766E+01  0.44194510853E+02  0.72802719838E+02  0.47000000000E+01 0. -1.
         -5    1    5    5    0  503  0.45086322889E+02 -0.38343076164E+02  0.17510552442E+03  0.18489727603E+03  0.47000000000E+01 0. -1.
<mgrwt>
<rscale>  0 0.27448355E+03</rscale>
<asrwt>0</asrwt>
<pdfrwt beam="1">  1        1 0.80777014E-02 0.27448355E+03</pdfrwt>
<pdfrwt beam="2">  1       -1 0.55189714E-01 0.27448355E+03</pdfrwt>
<totfact> 0.29173938E+03</totfact>
</mgrwt>
</event>
<event>
 9    1  0.2098759E-002  0.2746474E+03  0.7818608E-02  0.1098649E+00
         -2   -1    0    0    0  501 -0.00000000000E+00  0.00000000000E+00  0.12046562987E+03  0.12046562987E+03  0.00000000000E+00 0.  1.
          2   -1    0    0  501    0  0.00000000000E+00 -0.00000000000E+00 -0.15654094392E+03  0.15654094392E+03  0.00000000000E+00 0.  1.
         36    2    1    2    0    0  0.35527136788E-14  0.00000000000E+00 -0.36075314047E+02  0.27700657379E+03  0.27464743516E+03 0.  0.
         25    2    3    3    0    0 -0.11765069085E+02 -0.55844262738E+02 -0.18847342351E+02  0.13893668528E+03  0.12526444696E+03 0.  0.
         25    2    3    3    0    0  0.11765069085E+02  0.55844262738E+02 -0.17227971696E+02  0.13806988851E+03  0.12453711323E+03 0.  0.
          5    1    4    4  502    0 -0.32870135573E+02  0.30905747334E+02 -0.19879490014E+02  0.49526711521E+02  0.47000000000E+01 0.  1.
         -5    1    4    4    0  502  0.21105066489E+02 -0.86750010072E+02  0.10321476627E+01  0.89409973760E+02  0.47000000000E+01 0.  1.
          5    1    5    5  503    0 -0.98005383901E+01 -0.35229784169E+02  0.13784636425E+02  0.39361077815E+02  0.47000000000E+01 0. -1.
         -5    1    5    5    0  503  0.21565607475E+02  0.91074046907E+02 -0.31012608121E+02  0.98708810692E+02  0.47000000000E+01 0. -1.
<mgrwt>
<rscale>  0 0.27464744E+03</rscale>
<asrwt>0</asrwt>
<pdfrwt beam="1">  1        2 0.24083222E-01 0.27464744E+03</pdfrwt>
<pdfrwt beam="2">  1       -2 0.18533174E-01 0.27464744E+03</pdfrwt>
<totfact> 0.53379895E+03</totfact>
</mgrwt>
</event>
<event>
 9    1  0.2098759E-002  0.2820974E+03  0.7818608E-02  0.1094549E+00
          1   -1    0    0  501    0  0.00000000000E+00  0.00000000000E+00  0.18300293717E+03  0.18300293717E+03  0.00000000000E+00 0. -1.
         -1   -1    0    0    0  501 -0.00000000000E+00 -0.00000000000E+00 -0.10871267196E+03  0.10871267196E+03  0.00000000000E+00 0. -1.
         36    2    1    2    0    0  0.14210854715E-13  0.00000000000E+00  0.74290265210E+02  0.29171560913E+03  0.28209741776E+03 0.  0.
         25    2    3    3    0    0 -0.45811059070E+02  0.37349193806E+02  0.76493018478E+01  0.13842442260E+03  0.12493675817E+03 0.  0.
         25    2    3    3    0    0  0.45811059070E+02 -0.37349193806E+02  0.66640963363E+02  0.15329118653E+03  0.12475397573E+03 0.  0.
          5    1    4    4  502    0 -0.49683910878E+02  0.19162039657E+02 -0.52720331209E+02  0.75081276539E+02  0.47000000000E+01 0. -1.
         -5    1    4    4    0  502  0.38728518082E+01  0.18187154149E+02  0.60369633057E+02  0.63343146058E+02  0.47000000000E+01 0. -1.
          5    1    5    5  503    0  0.27720049513E-01 -0.54377979666E+02  0.84900110107E+02  0.10093108608E+03  0.47000000000E+01 0. -1.
         -5    1    5    5    0  503  0.45783339020E+02  0.17028785860E+02 -0.18259146745E+02  0.52360100454E+02  0.47000000000E+01 0. -1.
<mgrwt>
<rscale>  0 0.28209742E+03</rscale>
<asrwt>0</asrwt>
<pdfrwt beam="1">  1        1 0.28154298E-01 0.28209742E+03</pdfrwt>
<pdfrwt beam="2">  1       -1 0.16725026E-01 0.28209742E+03</pdfrwt>
<totfact> 0.44085233E+03</totfact>
</mgrwt>
</event>
<event>
 9    1  0.2098759E-002  0.2752698E+03  0.7818608E-02  0.1098301E+00
          1   -1    0    0  501    0  0.00000000000E+00  0.00000000000E+00  0.29125898490E+03  0.29125898490E+03  0.00000000000E+00 0. -1.
         -1   -1    0    0    0  501 -0.00000000000E+00 -0.00000000000E+00 -0.65039581982E+02  0.65039581982E+02  0.00000000000E+00 0. -1.
         36    2    1    2    0    0 -0.35527136788E-14  0.88817841970E-15  0.22621940292E+03  0.35629856688E+03  0.27526977768E+03 0.  0.
         25    2    3    3    0    0 -0.16983386418E+01  0.37770366434E+01  0.38521200759E+02  0.12937895822E+03  0.12344181448E+03 0.  0.
         25    2    3    3    0    0  0.16983386418E+01 -0.37770366434E+01  0.18769820216E+03  0.22691960866E+03  0.12745486786E+03 0.  0.
          5    1    4    4  502    0 -0.34422667916E+01 -0.17792840825E+02 -0.41938316915E+02  0.45927625793E+02  0.47000000000E+01 0. -1.
         -5    1    4    4    0  502  0.17439281498E+01  0.21569877468E+02  0.80459517674E+02  0.83451332427E+02  0.47000000000E+01 0. -1.
          5    1    5    5  503    0  0.60419637795E+02 -0.33955008525E+01  0.55737454082E+02  0.82406406577E+02  0.47000000000E+01 0. -1.
         -5    1    5    5    0  503 -0.58721299154E+02 -0.38153579091E+00  0.13196074808E+03  0.14451320208E+03  0.47000000000E+01 0. -1.
<mgrwt>
<rscale>  0 0.27526978E+03</rscale>
<asrwt>0</asrwt>
<pdfrwt beam="1">  1        1 0.44809074E-01 0.27526978E+03</pdfrwt>
<pdfrwt beam="2">  1       -1 0.10006090E-01 0.27526978E+03</pdfrwt>
<totfact> 0.55034460E+03</totfact>
</mgrwt>
</event>
<event>
 9    1  0.2098759E-002  0.2741669E+03  0.7818608E-02  0.1098918E+00
          1   -1    0    0  501    0  0.00000000000E+00  0.00000000000E+00  0.22438552651E+03  0.22438552651E+03  0.00000000000E+00 0. -1.
         -1   -1    0    0    0  501 -0.00000000000E+00 -0.00000000000E+00 -0.83748177034E+02  0.83748177034E+02  0.00000000000E+00 0. -1.
         36    2    1    2    0    0  0.00000000000E+00  0.14210854715E-13  0.14063734947E+03  0.30813370354E+03  0.27416694766E+03 0.  0.
         25    2    3    3    0    0  0.21479663004E+01  0.39867901599E+02  0.30754622012E+02  0.13943009544E+03  0.13000323612E+03 0.  0.
         25    2    3    3    0    0 -0.21479663004E+01 -0.39867901599E+02  0.10988272746E+03  0.16870360810E+03  0.12162495737E+03 0.  0.
          5    1    4    4  502    0  0.55629777965E+02  0.21825645979E+02  0.51584507310E+02  0.79082756737E+02  0.47000000000E+01 0. -1.
         -5    1    4    4    0  502 -0.53481811664E+02  0.18042255620E+02 -0.20829885298E+02  0.60347338701E+02  0.47000000000E+01 0. -1.
          5    1    5    5  503    0  0.40703438293E+02 -0.65929150479E+02  0.65482928639E+02  0.10155553513E+03  0.47000000000E+01 0.  1.
         -5    1    5    5    0  503 -0.42851404593E+02  0.26061248880E+02  0.44399798821E+02  0.67148072974E+02  0.47000000000E+01 0.  1.
<mgrwt>
<rscale>  0 0.27416695E+03</rscale>
<asrwt>0</asrwt>
<pdfrwt beam="1">  1        1 0.34520850E-01 0.27416695E+03</pdfrwt>
<pdfrwt beam="2">  1       -1 0.12884335E-01 0.27416695E+03</pdfrwt>
<totfact> 0.51505085E+03</totfact>
</mgrwt>
</event>
<event>
 9    1  0.2098759E-002  0.2749254E+03  0.7818608E-02  0.1098493E+00
         -1   -1    0    0    0  501 -0.00000000000E+00  0.00000000000E+00  0.38179764445E+02  0.38179764445E+02  0.00000000000E+00 0.  1.
          1   -1    0    0  501    0  0.00000000000E+00 -0.00000000000E+00 -0.49492160027E+03  0.49492160027E+03  0.00000000000E+00 0.  1.
         36    2    1    2    0    0  0.71054273576E-14  0.00000000000E+00 -0.45674183582E+03  0.53310136472E+03  0.27492537255E+03 0.  0.
         25    2    3    3    0    0  0.52965789215E+02  0.16179116350E+02 -0.17936458689E+03  0.22357971709E+03  0.12144585721E+03 0.  0.
         25    2    3    3    0    0 -0.52965789215E+02 -0.16179116350E+02 -0.27737724894E+03  0.30952164762E+03  0.12569158081E+03 0.  0.
          5    1    4    4  502    0  0.19689656822E+02 -0.37559100761E+01  0.14906417331E+02  0.25418118024E+02  0.47000000000E+01 0. -1.
         -5    1    4    4    0  502  0.33276132393E+02  0.19935026427E+02 -0.19427100422E+03  0.19816159907E+03  0.47000000000E+01 0. -1.
          5    1    5    5  503    0 -0.40564921065E+02 -0.23319696502E+02 -0.28753472525E+03  0.29135481683E+03  0.47000000000E+01 0. -1.
         -5    1    5    5    0  503 -0.12400868150E+02  0.71405801518E+01  0.10157476316E+02  0.18166830788E+02  0.47000000000E+01 0. -1.
<mgrwt>
<rscale>  0 0.27492537E+03</rscale>
<asrwt>0</asrwt>
<pdfrwt beam="1">  1        1 0.76141777E-01 0.27492537E+03</pdfrwt>
<pdfrwt beam="2">  1       -1 0.58738105E-02 0.27492537E+03</pdfrwt>
<totfact> 0.62865248E+03</totfact>
</mgrwt>
</event>
<event>
 9    1  0.2098759E-002  0.2749847E+03  0.7818608E-02  0.1098460E+00
         -2   -1    0    0    0  501 -0.00000000000E+00  0.00000000000E+00  0.11283537452E+02  0.11283537452E+02  0.00000000000E+00 0. -1.
          2   -1    0    0  501    0  0.00000000000E+00 -0.00000000000E+00 -0.16753741152E+04  0.16753741152E+04  0.00000000000E+00 0. -1.
         36    2    1    2    0    0  0.71054273576E-14  0.00000000000E+00 -0.16640905777E+04  0.16866576526E+04  0.27498470193E+03 0.  0.
         25    2    3    3    0    0  0.48971706514E+02  0.13463268190E+02 -0.97545688968E+03  0.98476431956E+03  0.12516043236E+03 0.  0.
         25    2    3    3    0    0 -0.48971706514E+02 -0.13463268190E+02 -0.68863368806E+03  0.70189333308E+03  0.12593016741E+03 0.  0.
          5    1    4    4  502    0  0.12426560520E+02  0.24909132052E+02 -0.42571354355E+02  0.51081253680E+02  0.47000000000E+01 0. -1.
         -5    1    4    4    0  502  0.36545145994E+02 -0.11445863861E+02 -0.93288553532E+03  0.93368306588E+03  0.47000000000E+01 0. -1.
          5    1    5    5  503    0  0.15602443122E+02  0.33676358189E+02 -0.83690756278E+02  0.91672056913E+02  0.47000000000E+01 0.  1.
         -5    1    5    5    0  503 -0.64574149636E+02 -0.47139626380E+02 -0.60494293178E+03  0.61022127617E+03  0.47000000000E+01 0.  1.
<mgrwt>
<rscale>  0 0.27498470E+03</rscale>
<asrwt>0</asrwt>
<pdfrwt beam="1">  1        2 0.25774981E+00 0.27498470E+03</pdfrwt>
<pdfrwt beam="2">  1       -2 0.17359292E-02 0.27498470E+03</pdfrwt>
<totfact> 0.10481877E+04</totfact>
</mgrwt>
</event>
<event>
 9    1  0.2098759E-002  0.2759152E+03  0.7818608E-02  0.1097941E+00
         -2   -1    0    0    0  501 -0.00000000000E+00  0.00000000000E+00  0.68234952490E+01  0.68234952490E+01  0.00000000000E+00 0. -1.
          2   -1    0    0  501    0  0.00000000000E+00 -0.00000000000E+00 -0.27892296560E+04  0.27892296560E+04  0.00000000000E+00 0. -1.
         36    2    1    2    0    0  0.71054273576E-14  0.00000000000E+00 -0.27824061608E+04  0.27960531513E+04  0.27591517034E+03 0.  0.
         25    2    3    3    0    0 -0.36812067211E+02  0.34575506212E+02 -0.15926823393E+04  0.15984627693E+04  0.12607774075E+03 0.  0.
         25    2    3    3    0    0  0.36812067211E+02 -0.34575506212E+02 -0.11897238214E+04  0.11975903820E+04  0.12739449713E+03 0.  0.
          5    1    4    4  502    0 -0.79950785444E+02  0.31923265829E+02 -0.81039638618E+03  0.81496970234E+03  0.47000000000E+01 0.  1.
         -5    1    4    4    0  502  0.43138718233E+02  0.26522403828E+01 -0.78228595317E+03  0.78349306692E+03  0.47000000000E+01 0.  1.
          5    1    5    5  503    0 -0.93072628432E+00 -0.75630790651E+02 -0.84062430299E+03  0.84403328816E+03  0.47000000000E+01 0.  1.
         -5    1    5    5    0  503  0.37742793495E+02  0.41055284439E+02 -0.34909951843E+03  0.35355709385E+03  0.47000000000E+01 0.  1.
<mgrwt>
<rscale>  0 0.27591517E+03</rscale>
<asrwt>0</asrwt>
<pdfrwt beam="1">  1        2 0.42911247E+00 0.27591517E+03</pdfrwt>
<pdfrwt beam="2">  1       -2 0.10497680E-02 0.27591517E+03</pdfrwt>
<totfact> 0.54898241E+03</totfact>
</mgrwt>
</event>
<event>
 9    1  0.2098759E-002  0.2745405E+03  0.7818608E-02  0.1098709E+00
         -4   -1    0    0    0  501 -0.00000000000E+00  0.00000000000E+00  0.16875624062E+03  0.16875624062E+03  0.00000000000E+00 0.  1.
          4   -1    0    0  501    0  0.00000000000E+00 -0.00000000000E+00 -0.11165883074E+03  0.11165883074E+03  0.00000000000E+00 0.  1.
         36    2    1    2    0    0  0.71054273576E-14  0.00000000000E+00  0.57097409878E+02  0.28041507135E+03  0.27454052165E+03 0.  0.
         25    2    3    3    0    0 -0.44023398244E+02  0.91776984185E+01 -0.50716418825E+01  0.13261729340E+03  0.12465686991E+03 0.  0.
         25    2    3    3    0    0  0.44023398244E+02 -0.91776984185E+01  0.62169051760E+02  0.14779777795E+03  0.12632063343E+03 0.  0.
          5    1    4    4  502    0  0.23338375063E+02 -0.17412528291E+02  0.38093930169E+02  0.48177934864E+02  0.47000000000E+01 0.  1.
         -5    1    4    4    0  502 -0.67361773307E+02  0.26590226709E+02 -0.43165572052E+02  0.84439358536E+02  0.47000000000E+01 0.  1.
          5    1    5    5  503    0  0.17446439479E+02 -0.18779769518E+02  0.98295795320E+02  0.10169174682E+03  0.47000000000E+01 0. -1.
         -5    1    5    5    0  503  0.26576958765E+02  0.96020710999E+01 -0.36126743560E+02  0.46106031133E+02  0.47000000000E+01 0. -1.
<mgrwt>
<rscale>  0 0.27454052E+03</rscale>
<asrwt>0</asrwt>
<pdfrwt beam="1">  1        4 0.17178282E-01 0.27454052E+03</pdfrwt>
<pdfrwt beam="2">  1       -4 0.25962499E-01 0.27454052E+03</pdfrwt>
<totfact> 0.77629328E+02</totfact>
</mgrwt>
</event>
<event>
 9    1  0.2098759E-002  0.2751833E+03  0.7818608E-02  0.1098349E+00
         -2   -1    0    0    0  501 -0.00000000000E+00  0.00000000000E+00  0.34506295142E+02  0.34506295142E+02  0.00000000000E+00 0.  1.
          2   -1    0    0  501    0  0.00000000000E+00 -0.00000000000E+00 -0.54863803640E+03  0.54863803640E+03  0.00000000000E+00 0.  1.
         36    2    1    2    0    0  0.00000000000E+00  0.88817841970E-15 -0.51413174126E+03  0.58314433155E+03  0.27518332806E+03 0.  0.
         25    2    3    3    0    0 -0.79273894140E+01 -0.48094507411E+01 -0.36477288739E+03  0.38593849648E+03  0.12571113464E+03 0.  0.
         25    2    3    3    0    0  0.79273894140E+01  0.48094507411E+01 -0.14935885388E+03  0.19720583507E+03  0.12843714351E+03 0.  0.
          5    1    4    4  502    0  0.52295220970E+02  0.39523594100E+01 -0.88296153098E+02  0.10280424083E+03  0.47000000000E+01 0.  1.
         -5    1    4    4    0  502 -0.60222610384E+02 -0.87618101511E+01 -0.27647673429E+03  0.28313425565E+03  0.47000000000E+01 0.  1.
          5    1    5    5  503    0  0.36404123719E+02  0.51681161737E+02 -0.11775535508E+03  0.13373337786E+03  0.47000000000E+01 0.  1.
         -5    1    5    5    0  503 -0.28476734305E+02 -0.46871710996E+02 -0.31603498794E+02  0.63472457211E+02  0.47000000000E+01 0.  1.
<mgrwt>
<rscale>  0 0.27518333E+03</rscale>
<asrwt>0</asrwt>
<pdfrwt beam="1">  1        2 0.84405851E-01 0.27518333E+03</pdfrwt>
<pdfrwt beam="2">  1       -2 0.53086608E-02 0.27518333E+03</pdfrwt>
<totfact> 0.99508217E+03</totfact>
</mgrwt>
</event>
<event>
 9    1  0.2098759E-002  0.2745799E+03  0.7818608E-02  0.1098687E+00
          2   -1    0    0  501    0  0.00000000000E+00  0.00000000000E+00  0.38392588126E+03  0.38392588126E+03  0.00000000000E+00 0. -1.
         -2   -1    0    0    0  501 -0.00000000000E+00 -0.00000000000E+00 -0.49094204394E+02  0.49094204394E+02  0.00000000000E+00 0. -1.
         36    2    1    2    0    0  0.00000000000E+00  0.17763568394E-14  0.33483167687E+03  0.43302008566E+03  0.27457993872E+03 0.  0.
         25    2    3    3    0    0  0.18317577449E+02 -0.84385345404E+00  0.25116234083E+03  0.27797729058E+03  0.11769709807E+03 0.  0.
         25    2    3    3    0    0 -0.18317577449E+02  0.84385345404E+00  0.83669336041E+02  0.15504279508E+03  0.12923414711E+03 0.  0.
          5    1    4    4  502    0  0.98542527081E+01 -0.22636872965E+02  0.25282676270E+03  0.25407281683E+03  0.47000000000E+01 0. -1.
         -5    1    4    4    0  502  0.84633247410E+01  0.21793019511E+02 -0.16644218717E+01  0.23904473750E+02  0.47000000000E+01 0. -1.
          5    1    5    5  503    0 -0.25732983575E+02  0.73397305317E+01  0.11692486039E+03  0.12003987282E+03  0.47000000000E+01 0.  1.
         -5    1    5    5    0  503  0.74154061254E+01 -0.64958770776E+01 -0.33255524351E+02  0.35002922262E+02  0.47000000000E+01 0.  1.
<mgrwt>
<rscale>  0 0.27457994E+03</rscale>
<asrwt>0</asrwt>
<pdfrwt beam="1">  1        2 0.59065518E-01 0.27457994E+03</pdfrwt>
<pdfrwt beam="2">  1       -2 0.75529548E-02 0.27457994E+03</pdfrwt>
<totfact> 0.85823696E+03</totfact>
</mgrwt>
</event>
<event>
 9    1  0.2098759E-002  0.2751529E+03  0.7818608E-02  0.1098366E+00
         -1   -1    0    0    0  501 -0.00000000000E+00  0.00000000000E+00  0.60252322660E+03  0.60252322660E+03  0.00000000000E+00 0.  1.
          1   -1    0    0  501    0  0.00000000000E+00 -0.00000000000E+00 -0.31413353964E+02  0.31413353964E+02  0.00000000000E+00 0.  1.
         36    2    1    2    0    0  0.71054273576E-14 -0.17763568394E-14  0.57110987264E+03  0.63393658057E+03  0.27515286943E+03 0.  0.
         25    2    3    3    0    0  0.44267175055E+02 -0.13776501096E+02  0.17601309653E+03  0.21900745968E+03  0.12179606921E+03 0.  0.
         25    2    3    3    0    0 -0.44267175055E+02  0.13776501096E+02  0.39509677611E+03  0.41492912089E+03  0.11796329132E+03 0.  0.
          5    1    4    4  502    0  0.42062190604E+02  0.50084575365E+02  0.77869387306E+02  0.10180090396E+03  0.47000000000E+01 0. -1.
         -5    1    4    4    0  502  0.22049844510E+01 -0.63861076461E+02  0.98143709225E+02  0.11720655572E+03  0.47000000000E+01 0. -1.
          5    1    5    5  503    0 -0.43356561600E+02 -0.80082811990E+01  0.38938955709E+03  0.39190590857E+03  0.47000000000E+01 0. -1.
         -5    1    5    5    0  503 -0.91061345495E+00  0.21784782295E+02  0.57072190208E+01  0.23023212319E+02  0.47000000000E+01 0. -1.
<mgrwt>
<rscale>  0 0.27515287E+03</rscale>
<asrwt>0</asrwt>
<pdfrwt beam="1">  1        1 0.48328241E-02 0.27515287E+03</pdfrwt>
<pdfrwt beam="2">  1       -1 0.92695873E-01 0.27515287E+03</pdfrwt>
<totfact> 0.20772852E+03</totfact>
</mgrwt>
</event>
<event>
 9    1  0.2098759E-002  0.2750098E+03  0.7818608E-02  0.1098446E+00
          2   -1    0    0  501    0  0.00000000000E+00  0.00000000000E+00  0.12972086001E+03  0.12972086001E+03  0.00000000000E+00 0.  1.
         -2   -1    0    0    0  501 -0.00000000000E+00 -0.00000000000E+00 -0.14575601821E+03  0.14575601821E+03  0.00000000000E+00 0.  1.
         36    2    1    2    0    0 -0.71054273576E-14  0.00000000000E+00 -0.16035158194E+02  0.27547687822E+03  0.27500978916E+03 0.  0.
         25    2    3    3    0    0  0.32581934238E+02  0.49370862490E+02 -0.24146345804E+01  0.13869102387E+03  0.12542051324E+03 0.  0.
         25    2    3    3    0    0 -0.32581934238E+02 -0.49370862490E+02 -0.13620523613E+02  0.13678585435E+03  0.12257971604E+03 0.  0.
          5    1    4    4  502    0  0.38322699817E+02  0.82624149675E+02  0.25441189842E+02  0.94682224157E+02  0.47000000000E+01 0. -1.
         -5    1    4    4    0  502 -0.57407655789E+01 -0.33253287185E+02 -0.27855824422E+02  0.44008799714E+02  0.47000000000E+01 0. -1.
          5    1    5    5  503    0  0.15861570637E+02  0.23109166229E+02  0.28150816391E+02  0.40002268065E+02  0.47000000000E+01 0. -1.
         -5    1    5    5    0  503 -0.48443504875E+02 -0.72480028719E+02 -0.41771340005E+02  0.96783586281E+02  0.47000000000E+01 0. -1.
<mgrwt>
<rscale>  0 0.27500979E+03</rscale>
<asrwt>0</asrwt>
<pdfrwt beam="1">  1        2 0.19957055E-01 0.27500979E+03</pdfrwt>
<pdfrwt beam="2">  1       -2 0.22424003E-01 0.27500979E+03</pdfrwt>
<totfact> 0.47637863E+03</totfact>
</mgrwt>
</event>
<event>
 9    1  0.2098759E-002  0.2750579E+03  0.7818608E-02  0.1098419E+00
          1   -1    0    0  501    0  0.00000000000E+00  0.00000000000E+00  0.90401173458E+02  0.90401173458E+02  0.00000000000E+00 0. -1.
         -1   -1    0    0    0  501 -0.00000000000E+00 -0.00000000000E+00 -0.20922534752E+03  0.20922534752E+03  0.00000000000E+00 0. -1.
         36    2    1    2    0    0 -0.71054273576E-14  0.35527136788E-14 -0.11882417406E+03  0.29962652098E+03  0.27505793523E+03 0.  0.
         25    2    3    3    0    0 -0.52973475440E+02 -0.18825383860E+02 -0.62431670916E+02  0.15119880255E+03  0.12570910938E+03 0.  0.
         25    2    3    3    0    0  0.52973475440E+02  0.18825383860E+02 -0.56392503147E+02  0.14842771843E+03  0.12526008546E+03 0.  0.
          5    1    4    4  502    0 -0.25825342561E+02 -0.62675169257E+02  0.26808031584E+01  0.68002954828E+02  0.47000000000E+01 0. -1.
         -5    1    4    4    0  502 -0.27148132879E+02  0.43849785397E+02 -0.65112474075E+02  0.83195847723E+02  0.47000000000E+01 0. -1.
          5    1    5    5  503    0 -0.39880558052E+02 -0.59073042698E+01 -0.22616780933E+02  0.46464652522E+02  0.47000000000E+01 0.  1.
         -5    1    5    5    0  503  0.92854033491E+02  0.24732688130E+02 -0.33775722214E+02  0.10196306591E+03  0.47000000000E+01 0.  1.
<mgrwt>
<rscale>  0 0.27505794E+03</rscale>
<asrwt>0</asrwt>
<pdfrwt beam="1">  1        1 0.13907873E-01 0.27505794E+03</pdfrwt>
<pdfrwt beam="2">  1       -1 0.32188515E-01 0.27505794E+03</pdfrwt>
<totfact> 0.37086085E+03</totfact>
</mgrwt>
</event>
<event>
 9    1  0.2098759E-002  0.2747546E+03  0.7818608E-02  0.1098589E+00
         -1   -1    0    0    0  501 -0.00000000000E+00  0.00000000000E+00  0.26329390021E+03  0.26329390021E+03  0.00000000000E+00 0. -1.
          1   -1    0    0  501    0  0.00000000000E+00 -0.00000000000E+00 -0.71678549379E+02  0.71678549379E+02  0.00000000000E+00 0. -1.
         36    2    1    2    0    0  0.71054273576E-14  0.00000000000E+00  0.19161535083E+03  0.33497244959E+03  0.27475461654E+03 0.  0.
         25    2    3    3    0    0 -0.20941243595E+02 -0.20881070483E+02  0.37227076275E+02  0.13395429103E+03  0.12523315092E+03 0.  0.
         25    2    3    3    0    0  0.20941243595E+02  0.20881070483E+02  0.15438827456E+03  0.20101815856E+03  0.12529168354E+03 0.  0.
          5    1    4    4  502    0 -0.65972232781E+02 -0.32682609254E+02 -0.61760726066E+00  0.73776418214E+02  0.47000000000E+01 0. -1.
         -5    1    4    4    0  502  0.45030989186E+02  0.11801538771E+02  0.37844683536E+02  0.60177872814E+02  0.47000000000E+01 0. -1.
          5    1    5    5  503    0  0.60973123721E+02 -0.20504552241E+02  0.11243286877E+03  0.12962020853E+03  0.47000000000E+01 0. -1.
         -5    1    5    5    0  503 -0.40031880126E+02  0.41385622723E+02  0.41955405790E+02  0.71397950038E+02  0.47000000000E+01 0. -1.
<mgrwt>
<rscale>  0 0.27475462E+03</rscale>
<asrwt>0</asrwt>
<pdfrwt beam="1">  1        1 0.11027469E-01 0.27475462E+03</pdfrwt>
<pdfrwt beam="2">  1       -1 0.40506753E-01 0.27475462E+03</pdfrwt>
<totfact> 0.33778306E+03</totfact>
</mgrwt>
</event>
<event>
 9    1  0.2098759E-002  0.2733549E+03  0.7818608E-02  0.1099375E+00
          1   -1    0    0  501    0  0.00000000000E+00  0.00000000000E+00  0.21667864374E+04  0.21667864374E+04  0.00000000000E+00 0.  1.
         -1   -1    0    0    0  501 -0.00000000000E+00 -0.00000000000E+00 -0.86213970441E+01  0.86213970441E+01  0.00000000000E+00 0.  1.
         36    2    1    2    0    0  0.00000000000E+00  0.71054273576E-14  0.21581650403E+04  0.21754078344E+04  0.27335490620E+03 0.  0.
         25    2    3    3    0    0 -0.24790370145E+02 -0.45893258423E+02  0.10660162622E+04  0.10749176916E+04  0.12781478329E+03 0.  0.
         25    2    3    3    0    0  0.24790370145E+02  0.45893258423E+02  0.10921487781E+04  0.11004901428E+04  0.12477518680E+03 0.  0.
          5    1    4    4  502    0  0.15301856334E+02 -0.91378559225E+01  0.18972774740E+02  0.26451907294E+02  0.47000000000E+01 0. -1.
         -5    1    4    4    0  502 -0.40092226480E+02 -0.36755402500E+02  0.10470434875E+04  0.10484657843E+04  0.47000000000E+01 0. -1.
          5    1    5    5  503    0 -0.24276688911E+02  0.52335842217E+02  0.23957657683E+03  0.24646992549E+03  0.47000000000E+01 0. -1.
         -5    1    5    5    0  503  0.49067059056E+02 -0.64425837945E+01  0.85257220129E+03  0.85402021731E+03  0.47000000000E+01 0. -1.
<mgrwt>
<rscale>  0 0.27335491E+03</rscale>
<asrwt>0</asrwt>
<pdfrwt beam="1">  1        1 0.33335133E+00 0.27335491E+03</pdfrwt>
<pdfrwt beam="2">  1       -1 0.13263705E-02 0.27335491E+03</pdfrwt>
<totfact> 0.32804480E+03</totfact>
</mgrwt>
</event>
<event>
 9    1  0.2098759E-002  0.2752317E+03  0.7818608E-02  0.1098322E+00
         -2   -1    0    0    0  501 -0.00000000000E+00  0.00000000000E+00  0.17006506679E+02  0.17006506679E+02  0.00000000000E+00 0. -1.
          2   -1    0    0  501    0  0.00000000000E+00 -0.00000000000E+00 -0.11135810089E+04  0.11135810089E+04  0.00000000000E+00 0. -1.
         36    2    1    2    0    0  0.00000000000E+00  0.35527136788E-14 -0.10965745022E+04  0.11305875156E+04  0.27523170505E+03 0.  0.
         25    2    3    3    0    0 -0.49260292028E+02 -0.25162299012E+02 -0.59371835706E+03  0.60945826174E+03  0.12600860142E+03 0.  0.
         25    2    3    3    0    0  0.49260292028E+02  0.25162299012E+02 -0.50285614519E+03  0.52112925387E+03  0.12510666976E+03 0.  0.
          5    1    4    4  502    0  0.26759416146E+02 -0.32205106350E+02 -0.83398460889E+02  0.93437832306E+02  0.47000000000E+01 0. -1.
         -5    1    4    4    0  502 -0.76019708173E+02  0.70428073383E+01 -0.51031989617E+03  0.51602042944E+03  0.47000000000E+01 0. -1.
          5    1    5    5  503    0  0.84156180039E+02  0.32829562265E+02 -0.25292289484E+03  0.26861147320E+03  0.47000000000E+01 0. -1.
         -5    1    5    5    0  503 -0.34895888011E+02 -0.76672632533E+01 -0.24993325034E+03  0.25251778067E+03  0.47000000000E+01 0. -1.
<mgrwt>
<rscale>  0 0.27523171E+03</rscale>
<asrwt>0</asrwt>
<pdfrwt beam="1">  1        2 0.17132015E+00 0.27523171E+03</pdfrwt>
<pdfrwt beam="2">  1       -2 0.26163857E-02 0.27523171E+03</pdfrwt>
<totfact> 0.11627932E+04</totfact>
</mgrwt>
</event>
<event>
 9    1  0.2098759E-002  0.2751192E+03  0.7818608E-02  0.1098385E+00
          1   -1    0    0  501    0  0.00000000000E+00  0.00000000000E+00  0.42017773622E+03  0.42017773622E+03  0.00000000000E+00 0. -1.
         -1   -1    0    0    0  501 -0.00000000000E+00 -0.00000000000E+00 -0.45034844934E+02  0.45034844934E+02  0.00000000000E+00 0. -1.
         36    2    1    2    0    0  0.00000000000E+00  0.00000000000E+00  0.37514289129E+03  0.46521258116E+03  0.27511916833E+03 0.  0.
         25    2    3    3    0    0  0.18624642638E+02  0.66973816303E+02  0.18034763549E+03  0.22605780876E+03  0.11723691351E+03 0.  0.
         25    2    3    3    0    0 -0.18624642638E+02 -0.66973816303E+02  0.19479525580E+03  0.23915477240E+03  0.12007266174E+03 0.  0.
          5    1    4    4  502    0  0.30191468475E+02  0.96022595919E+02  0.11144093012E+03  0.15024325144E+03  0.47000000000E+01 0. -1.
         -5    1    4    4    0  502 -0.11566825837E+02 -0.29048779616E+02  0.68906705368E+02  0.75814557321E+02  0.47000000000E+01 0. -1.
          5    1    5    5  503    0  0.62616528031E+01 -0.94355779997E+02  0.10213387014E+03  0.13926822661E+03  0.47000000000E+01 0. -1.
         -5    1    5    5    0  503 -0.24886295441E+02  0.27381963694E+02  0.92661385659E+02  0.99886545785E+02  0.47000000000E+01 0. -1.
<mgrwt>
<rscale>  0 0.27511917E+03</rscale>
<asrwt>0</asrwt>
<pdfrwt beam="1">  1        1 0.64642726E-01 0.27511917E+03</pdfrwt>
<pdfrwt beam="2">  1       -1 0.69284380E-02 0.27511917E+03</pdfrwt>
<totfact> 0.60660980E+03</totfact>
</mgrwt>
</event>
<event>
 9    1  0.2098759E-002  0.2708413E+03  0.7818608E-02  0.1100799E+00
          2   -1    0    0  501    0  0.00000000000E+00  0.00000000000E+00  0.17515735360E+04  0.17515735360E+04  0.00000000000E+00 0. -1.
         -2   -1    0    0    0  501 -0.00000000000E+00 -0.00000000000E+00 -0.10469875681E+02  0.10469875681E+02  0.00000000000E+00 0. -1.
         36    2    1    2    0    0 -0.17763568394E-14  0.00000000000E+00  0.17411036603E+04  0.17620434117E+04  0.27084133487E+03 0.  0.
         25    2    3    3    0    0 -0.43117126816E+01 -0.48646937351E+02  0.83443648275E+03  0.84524322892E+03  0.12556574735E+03 0.  0.
         25    2    3    3    0    0  0.43117126816E+01  0.48646937351E+02  0.90666717759E+03  0.91680018278E+03  0.12685459729E+03 0.  0.
          5    1    4    4  502    0 -0.23707815190E+02 -0.56792574436E+02  0.17698778338E+03  0.18744125074E+03  0.47000000000E+01 0. -1.
         -5    1    4    4    0  502  0.19396102509E+02  0.81456370845E+01  0.65744869937E+03  0.65780197818E+03  0.47000000000E+01 0. -1.
          5    1    5    5  503    0 -0.56477045242E+01  0.23152485700E+02  0.87219448138E+03  0.87253265699E+03  0.47000000000E+01 0.  1.
         -5    1    5    5    0  503  0.99594172058E+01  0.25494451651E+02  0.34472696206E+02  0.44267525793E+02  0.47000000000E+01 0.  1.
<mgrwt>
<rscale>  0 0.27084133E+03</rscale>
<asrwt>0</asrwt>
<pdfrwt beam="1">  1        2 0.26947262E+00 0.27084133E+03</pdfrwt>
<pdfrwt beam="2">  1       -2 0.16107515E-02 0.27084133E+03</pdfrwt>
<totfact> 0.10662563E+04</totfact>
</mgrwt>
</event>
<event>
 9    1  0.2098759E-002  0.2765289E+03  0.7818608E-02  0.1097600E+00
          1   -1    0    0  501    0  0.00000000000E+00  0.00000000000E+00  0.19497470739E+03  0.19497470739E+03  0.00000000000E+00 0.  1.
         -1   -1    0    0    0  501 -0.00000000000E+00 -0.00000000000E+00 -0.98048931820E+02  0.98048931820E+02  0.00000000000E+00 0.  1.
         36    2    1    2    0    0  0.35527136788E-14  0.00000000000E+00  0.96925775574E+02  0.29302363921E+03  0.27652892646E+03 0.  0.
         25    2    3    3    0    0  0.28919499805E+02  0.58470957084E+02  0.28922897097E+02  0.14427225211E+03  0.12539042413E+03 0.  0.
         25    2    3    3    0    0 -0.28919499805E+02 -0.58470957084E+02  0.68002878477E+02  0.14875138710E+03  0.11509732139E+03 0.  0.
          5    1    4    4  502    0  0.26245380472E+02  0.88303664386E+02 -0.12345504485E+02  0.93063734188E+02  0.47000000000E+01 0.  1.
         -5    1    4    4    0  502  0.26741193331E+01 -0.29832707301E+02  0.41268401582E+02  0.51208517926E+02  0.47000000000E+01 0.  1.
          5    1    5    5  503    0  0.46092384374E+01  0.85461931217E+00  0.79247846247E+02  0.79525383293E+02  0.47000000000E+01 0.  1.
         -5    1    5    5    0  503 -0.33528738242E+02 -0.59325576397E+02 -0.11244967770E+02  0.69226003807E+02  0.47000000000E+01 0.  1.
<mgrwt>
<rscale>  0 0.27652893E+03</rscale>
<asrwt>0</asrwt>
<pdfrwt beam="1">  1        1 0.29996109E-01 0.27652893E+03</pdfrwt>
<pdfrwt beam="2">  1       -1 0.15084451E-01 0.27652893E+03</pdfrwt>
<totfact> 0.47943723E+03</totfact>
</mgrwt>
</event>
<event>
 9    1  0.2098759E-002  0.2777970E+03  0.7818608E-02  0.1096898E+00
          2   -1    0    0  501    0  0.00000000000E+00  0.00000000000E+00  0.12169457410E+04  0.12169457410E+04  0.00000000000E+00 0.  1.
         -2   -1    0    0    0  501 -0.00000000000E+00 -0.00000000000E+00 -0.15853448387E+02  0.15853448387E+02  0.00000000000E+00 0.  1.
         36    2    1    2    0    0  0.71054273576E-14 -0.71054273576E-14  0.12010922926E+04  0.12327991894E+04  0.27779695099E+03 0.  0.
         25    2    3    3    0    0 -0.23509767429E+02 -0.49987937409E+02  0.60089899174E+03  0.61687995811E+03  0.12810066898E+03 0.  0.
         25    2    3    3    0    0  0.23509767429E+02  0.49987937409E+02  0.60019330088E+03  0.61591923128E+03  0.12677932794E+03 0.  0.
          5    1    4    4  502    0  0.32853212786E+02  0.22210102914E+02  0.10045556642E+03  0.10810195691E+03  0.47000000000E+01 0. -1.
         -5    1    4    4    0  502 -0.56362980215E+02 -0.72198040323E+02  0.50044342532E+03  0.50877800120E+03  0.47000000000E+01 0. -1.
          5    1    5    5  503    0 -0.37742837092E+02  0.46966529987E+02  0.15279860659E+03  0.16431640474E+03  0.47000000000E+01 0. -1.
         -5    1    5    5    0  503  0.61252604520E+02  0.30214074218E+01  0.44739469429E+03  0.45160282654E+03  0.47000000000E+01 0. -1.
<mgrwt>
<rscale>  0 0.27779695E+03</rscale>
<asrwt>0</asrwt>
<pdfrwt beam="1">  1        2 0.18722235E+00 0.27779695E+03</pdfrwt>
<pdfrwt beam="2">  1       -2 0.24389930E-02 0.27779695E+03</pdfrwt>
<totfact> 0.11255349E+04</totfact>
</mgrwt>
</event>
<event>
 9    1  0.2098759E-002  0.2748697E+03  0.7818608E-02  0.1098524E+00
          1   -1    0    0  501    0  0.00000000000E+00  0.00000000000E+00  0.98538434372E+02  0.98538434372E+02  0.00000000000E+00 0. -1.
         -1   -1    0    0    0  501 -0.00000000000E+00 -0.00000000000E+00 -0.19168499294E+03  0.19168499294E+03  0.00000000000E+00 0. -1.
         36    2    1    2    0    0  0.00000000000E+00  0.71054273576E-14 -0.93146558564E+02  0.29022342731E+03  0.27486970802E+03 0.  0.
         25    2    3    3    0    0  0.22731309617E+01  0.53566638018E+02 -0.57330393435E+02  0.14604932619E+03  0.12316281840E+03 0.  0.
         25    2    3    3    0    0 -0.22731309617E+01 -0.53566638018E+02 -0.35816165129E+02  0.14417410111E+03  0.12895278948E+03 0.  0.
          5    1    4    4  502    0  0.44827074526E+02  0.35757924306E+02  0.15613370941E+02  0.59615124871E+02  0.47000000000E+01 0. -1.
         -5    1    4    4    0  502 -0.42553943564E+02  0.17808713712E+02 -0.72943764376E+02  0.86434201323E+02  0.47000000000E+01 0. -1.
          5    1    5    5  503    0  0.57123490488E+02 -0.30241842044E+02 -0.45880101234E+02  0.79402366872E+02  0.47000000000E+01 0. -1.
         -5    1    5    5    0  503 -0.59396621449E+02 -0.23324795973E+02  0.10063936105E+02  0.64771734242E+02  0.47000000000E+01 0. -1.
<mgrwt>
<rscale>  0 0.27486971E+03</rscale>
<asrwt>0</asrwt>
<pdfrwt beam="1">  1        1 0.15159759E-01 0.27486971E+03</pdfrwt>
<pdfrwt beam="2">  1       -1 0.29489998E-01 0.27486971E+03</pdfrwt>
<totfact> 0.38450890E+03</totfact>
</mgrwt>
</event>
<event>
 9    1  0.2098759E-002  0.2755333E+03  0.7818608E-02  0.1098154E+00
         -2   -1    0    0    0  501 -0.00000000000E+00  0.00000000000E+00  0.38681076576E+03  0.38681076576E+03  0.00000000000E+00 0. -1.
          2   -1    0    0  501    0  0.00000000000E+00 -0.00000000000E+00 -0.49067010297E+02  0.49067010297E+02  0.00000000000E+00 0. -1.
         36    2    1    2    0    0 -0.71054273576E-14  0.00000000000E+00  0.33774375547E+03  0.43587777606E+03  0.27553328530E+03 0.  0.
         25    2    3    3    0    0 -0.26464346478E+02 -0.46826621020E+02  0.13852148614E+03  0.19503738504E+03  0.12632610723E+03 0.  0.
         25    2    3    3    0    0  0.26464346478E+02  0.46826621020E+02  0.19922226932E+03  0.24084039102E+03  0.12418328101E+03 0.  0.
          5    1    4    4  502    0  0.37031559999E+02 -0.18282089132E+02  0.18754486081E+01  0.41607433548E+02  0.47000000000E+01 0.  1.
         -5    1    4    4    0  502 -0.63495906477E+02 -0.28544531889E+02  0.13664603754E+03  0.15342995149E+03  0.47000000000E+01 0.  1.
          5    1    5    5  503    0 -0.32257248890E+02  0.65807797489E+02  0.10844654281E+03  0.13097304670E+03  0.47000000000E+01 0.  1.
         -5    1    5    5    0  503  0.58721595368E+02 -0.18981176469E+02  0.90775726517E+02  0.10986734432E+03  0.47000000000E+01 0.  1.
<mgrwt>
<rscale>  0 0.27553329E+03</rscale>
<asrwt>0</asrwt>
<pdfrwt beam="1">  1        2 0.75487711E-02 0.27553329E+03</pdfrwt>
<pdfrwt beam="2">  1       -2 0.59509347E-01 0.27553329E+03</pdfrwt>
<totfact> 0.24579102E+03</totfact>
</mgrwt>
</event>
<event>
 9    1  0.2098759E-002  0.2761349E+03  0.7818608E-02  0.1097819E+00
         -1   -1    0    0    0  501 -0.00000000000E+00  0.00000000000E+00  0.23391109485E+03  0.23391109485E+03  0.00000000000E+00 0. -1.
          1   -1    0    0  501    0  0.00000000000E+00 -0.00000000000E+00 -0.81495170845E+02  0.81495170845E+02  0.00000000000E+00 0. -1.
         36    2    1    2    0    0 -0.35527136788E-14  0.00000000000E+00  0.15241592400E+03  0.31540626570E+03  0.27613492816E+03 0.  0.
         25    2    3    3    0    0 -0.22686511910E+02  0.40433706508E+02  0.51254630078E+02  0.14678110921E+03  0.12949167723E+03 0.  0.
         25    2    3    3    0    0  0.22686511910E+02 -0.40433706508E+02  0.10116129393E+03  0.16862515648E+03  0.12669362086E+03 0.  0.
          5    1    4    4  502    0 -0.13052461937E+02  0.30066348403E+02  0.94977982755E+02  0.10058458767E+03  0.47000000000E+01 0.  1.
         -5    1    4    4    0  502 -0.96340499730E+01  0.10367358105E+02 -0.43723352677E+02  0.46196521539E+02  0.47000000000E+01 0.  1.
          5    1    5    5  503    0 -0.13248608800E+02  0.42247845374E+02  0.30243000007E+02  0.53825041787E+02  0.47000000000E+01 0.  1.
         -5    1    5    5    0  503  0.35935120710E+02 -0.82681551883E+02  0.70918293920E+02  0.11480011470E+03  0.47000000000E+01 0.  1.
<mgrwt>
<rscale>  0 0.27613493E+03</rscale>
<asrwt>0</asrwt>
<pdfrwt beam="1">  1        1 0.12537719E-01 0.27613493E+03</pdfrwt>
<pdfrwt beam="2">  1       -1 0.35986322E-01 0.27613493E+03</pdfrwt>
<totfact> 0.35074167E+03</totfact>
</mgrwt>
</event>
<event>
 9    1  0.2098759E-002  0.2753111E+03  0.7818608E-02  0.1098278E+00
          1   -1    0    0  501    0  0.00000000000E+00  0.00000000000E+00  0.14698422978E+04  0.14698422978E+04  0.00000000000E+00 0. -1.
         -1   -1    0    0    0  501 -0.00000000000E+00 -0.00000000000E+00 -0.12891891672E+02  0.12891891672E+02  0.00000000000E+00 0. -1.
         36    2    1    2    0    0  0.71054273576E-14 -0.53290705182E-14  0.14569504061E+04  0.14827341894E+04  0.27531107990E+03 0.  0.
         25    2    3    3    0    0 -0.45914993090E+02 -0.11502993948E+01  0.52424350667E+03  0.54071977473E+03  0.12424616985E+03 0.  0.
         25    2    3    3    0    0  0.45914993090E+02  0.11502993948E+01  0.93270689943E+03  0.94201441471E+03  0.12385268467E+03 0.  0.
          5    1    4    4  502    0 -0.36838185579E+02 -0.11781597961E+02  0.38572996248E+02  0.54825395637E+02  0.47000000000E+01 0.  1.
         -5    1    4    4    0  502 -0.90768075110E+01  0.10631298566E+02  0.48567051042E+03  0.48589437909E+03  0.47000000000E+01 0.  1.
          5    1    5    5  503    0  0.16769112677E+02 -0.52649061218E+02  0.22826241440E+03  0.23490199364E+03  0.47000000000E+01 0. -1.
         -5    1    5    5    0  503  0.29145880413E+02  0.53799360613E+02  0.70444448503E+03  0.70711242107E+03  0.47000000000E+01 0. -1.
<mgrwt>
<rscale>  0 0.27531108E+03</rscale>
<asrwt>0</asrwt>
<pdfrwt beam="1">  1        1 0.22612945E+00 0.27531108E+03</pdfrwt>
<pdfrwt beam="2">  1       -1 0.19833691E-02 0.27531108E+03</pdfrwt>
<totfact> 0.52022157E+03</totfact>
</mgrwt>
</event>
<event>
 9    1  0.2098759E-002  0.2740856E+03  0.7818608E-02  0.1098964E+00
          1   -1    0    0  501    0  0.00000000000E+00  0.00000000000E+00  0.29155494432E+03  0.29155494432E+03  0.00000000000E+00 0. -1.
         -1   -1    0    0    0  501 -0.00000000000E+00 -0.00000000000E+00 -0.64415766346E+02  0.64415766346E+02  0.00000000000E+00 0. -1.
         36    2    1    2    0    0  0.00000000000E+00  0.00000000000E+00  0.22713917797E+03  0.35597071066E+03  0.27408564479E+03 0.  0.
         25    2    3    3    0    0  0.32951746354E+02  0.31633919652E+02  0.15359081422E+03  0.20392724951E+03  0.12613351030E+03 0.  0.
         25    2    3    3    0    0 -0.32951746354E+02 -0.31633919652E+02  0.73548363752E+02  0.15204346115E+03  0.12498531837E+03 0.  0.
          5    1    4    4  502    0  0.72719698545E+02  0.25472172900E+02  0.14226301327E+03  0.16185747154E+03  0.47000000000E+01 0. -1.
         -5    1    4    4    0  502 -0.39767952191E+02  0.61617467522E+01  0.11327800952E+02  0.42069777976E+02  0.47000000000E+01 0. -1.
          5    1    5    5  503    0 -0.57741330308E+02  0.13949863907E+02  0.79773693586E+02  0.99572044858E+02  0.47000000000E+01 0.  1.
         -5    1    5    5    0  503  0.24789583954E+02 -0.45583783559E+02 -0.62253298338E+01  0.52471416293E+02  0.47000000000E+01 0.  1.
<mgrwt>
<rscale>  0 0.27408564E+03</rscale>
<asrwt>0</asrwt>
<pdfrwt beam="1">  1        1 0.44854606E-01 0.27408564E+03</pdfrwt>
<pdfrwt beam="2">  1       -1 0.99101180E-02 0.27408564E+03</pdfrwt>
<totfact> 0.55780961E+03</totfact>
</mgrwt>
</event>
<event>
 9    1  0.2098759E-002  0.2731018E+03  0.7818608E-02  0.1099517E+00
         -2   -1    0    0    0  501 -0.00000000000E+00  0.00000000000E+00  0.17441619548E+02  0.17441619548E+02  0.00000000000E+00 0. -1.
          2   -1    0    0  501    0  0.00000000000E+00 -0.00000000000E+00 -0.10690609900E+04  0.10690609900E+04  0.00000000000E+00 0. -1.
         36    2    1    2    0    0  0.00000000000E+00  0.00000000000E+00 -0.10516193705E+04  0.10865026096E+04  0.27310184959E+03 0.  0.
         25    2    3    3    0    0 -0.94484296464E+00  0.43906022053E+02 -0.52328874667E+03  0.54012742812E+03  0.12640369741E+03 0.  0.
         25    2    3    3    0    0  0.94484296464E+00 -0.43906022053E+02 -0.52833062382E+03  0.54637518147E+03  0.13215127450E+03 0.  0.
          5    1    4    4  502    0  0.98203568968E+01 -0.43806908937E+02 -0.16374501720E+03  0.16985289322E+03  0.47000000000E+01 0.  1.
         -5    1    4    4    0  502 -0.10765199861E+02  0.87712930990E+02 -0.35954372947E+03  0.37027453490E+03  0.47000000000E+01 0.  1.
          5    1    5    5  503    0 -0.11464170042E+02 -0.17386102886E+02 -0.46426722794E+01  0.21848299115E+02  0.47000000000E+01 0.  1.
         -5    1    5    5    0  503  0.12409013007E+02 -0.26519919167E+02 -0.52368795154E+03  0.52452688235E+03  0.47000000000E+01 0.  1.
<mgrwt>
<rscale>  0 0.27310185E+03</rscale>
<asrwt>0</asrwt>
<pdfrwt beam="1">  1        2 0.16447085E+00 0.27310185E+03</pdfrwt>
<pdfrwt beam="2">  1       -2 0.26833272E-02 0.27310185E+03</pdfrwt>
<totfact> 0.11895237E+04</totfact>
</mgrwt>
</event>
<event>
 9    1  0.2098759E-002  0.2729610E+03  0.7818608E-02  0.1099597E+00
         -2   -1    0    0    0  501 -0.00000000000E+00  0.00000000000E+00  0.10878928757E+02  0.10878928757E+02  0.00000000000E+00 0. -1.
          2   -1    0    0  501    0  0.00000000000E+00 -0.00000000000E+00 -0.17122025580E+04  0.17122025580E+04  0.00000000000E+00 0. -1.
         36    2    1    2    0    0  0.00000000000E+00  0.71054273576E-14 -0.17013236292E+04  0.17230814867E+04  0.27296102026E+03 0.  0.
         25    2    3    3    0    0  0.42006304821E+02 -0.44589818451E+01 -0.11077511603E+04  0.11156813468E+04  0.12588813421E+03 0.  0.
         25    2    3    3    0    0 -0.42006304821E+02  0.44589818451E+01 -0.59357246892E+03  0.60740013991E+03  0.12174663011E+03 0.  0.
          5    1    4    4  502    0  0.70582885655E+02 -0.37622009649E+02 -0.50418758592E+03  0.51051402640E+03  0.47000000000E+01 0. -1.
         -5    1    4    4    0  502 -0.28576580833E+02  0.33163027804E+02 -0.60356357436E+03  0.60516732040E+03  0.47000000000E+01 0. -1.
          5    1    5    5  503    0 -0.56800183673E+02 -0.46580591757E+02 -0.29129054871E+03  0.30044681087E+03  0.47000000000E+01 0.  1.
         -5    1    5    5    0  503  0.14793878852E+02  0.51039573602E+02 -0.30228192021E+03  0.30695332904E+03  0.47000000000E+01 0.  1.
<mgrwt>
<rscale>  0 0.27296102E+03</rscale>
<asrwt>0</asrwt>
<pdfrwt beam="1">  1        2 0.26341597E+00 0.27296102E+03</pdfrwt>
<pdfrwt beam="2">  1       -2 0.16736801E-02 0.27296102E+03</pdfrwt>
<totfact> 0.10573929E+04</totfact>
</mgrwt>
</event>
<event>
 9    1  0.2098759E-002  0.2747316E+03  0.7818608E-02  0.1098602E+00
         -2   -1    0    0    0  501 -0.00000000000E+00  0.00000000000E+00  0.17790297755E+02  0.17790297755E+02  0.00000000000E+00 0. -1.
          2   -1    0    0  501    0  0.00000000000E+00 -0.00000000000E+00 -0.10606549417E+04  0.10606549417E+04  0.00000000000E+00 0. -1.
         36    2    1    2    0    0  0.17763568394E-14  0.00000000000E+00 -0.10428646439E+04  0.10784452394E+04  0.27473163071E+03 0.  0.
         25    2    3    3    0    0 -0.76867218950E+01 -0.40858842702E+02 -0.70717519237E+03  0.71685441727E+03  0.10979513713E+03 0.  0.
         25    2    3    3    0    0  0.76867218950E+01  0.40858842702E+02 -0.33568945156E+03  0.36159082217E+03  0.12779665124E+03 0.  0.
          5    1    4    4  502    0  0.23821243647E+01  0.35299426748E+02 -0.13984789019E+03  0.14433033789E+03  0.47000000000E+01 0. -1.
         -5    1    4    4    0  502 -0.10068846260E+02 -0.76158269450E+02 -0.56732730219E+03  0.57252407939E+03  0.47000000000E+01 0. -1.
          5    1    5    5  503    0 -0.38232559756E+02 -0.18123782085E+02 -0.21779974448E+03  0.22192119952E+03  0.47000000000E+01 0. -1.
         -5    1    5    5    0  503  0.45919281651E+02  0.58982624788E+02 -0.11788970708E+03  0.13966962264E+03  0.47000000000E+01 0. -1.
<mgrwt>
<rscale>  0 0.27473163E+03</rscale>
<asrwt>0</asrwt>
<pdfrwt beam="1">  1        2 0.16317771E+00 0.27473163E+03</pdfrwt>
<pdfrwt beam="2">  1       -2 0.27369685E-02 0.27473163E+03</pdfrwt>
<totfact> 0.11687096E+04</totfact>
</mgrwt>
</event>
<event>
 9    1  0.2098759E-002  0.2748105E+03  0.7818608E-02  0.1098558E+00
          2   -1    0    0  501    0  0.00000000000E+00  0.00000000000E+00  0.20618646901E+03  0.20618646901E+03  0.00000000000E+00 0.  1.
         -2   -1    0    0    0  501 -0.00000000000E+00 -0.00000000000E+00 -0.91568572635E+02  0.91568572635E+02  0.00000000000E+00 0.  1.
         36    2    1    2    0    0  0.00000000000E+00  0.00000000000E+00  0.11461789637E+03  0.29775504165E+03  0.27481048498E+03 0.  0.
         25    2    3    3    0    0 -0.45223344359E+02 -0.40825413369E+02  0.73554562816E+02  0.15140977551E+03  0.11748523804E+03 0.  0.
         25    2    3    3    0    0  0.45223344359E+02  0.40825413369E+02  0.41063333559E+02  0.14634526613E+03  0.12656569166E+03 0.  0.
          5    1    4    4  502    0 -0.46904800758E+01  0.21484591744E+02  0.73567884376E+02  0.76927965639E+02  0.47000000000E+01 0.  1.
         -5    1    4    4    0  502 -0.40532864283E+02 -0.62310005113E+02 -0.13321560259E-01  0.74481809871E+02  0.47000000000E+01 0.  1.
          5    1    5    5  503    0 -0.25623156603E+02 -0.27275694283E+02 -0.43872805091E+01  0.37971672114E+02  0.47000000000E+01 0. -1.
         -5    1    5    5    0  503  0.70846500961E+02  0.68101107652E+02  0.45450614068E+02  0.10837359402E+03  0.47000000000E+01 0. -1.
<mgrwt>
<rscale>  0 0.27481048E+03</rscale>
<asrwt>0</asrwt>
<pdfrwt beam="1">  1        2 0.31720995E-01 0.27481048E+03</pdfrwt>
<pdfrwt beam="2">  1       -2 0.14087473E-01 0.27481048E+03</pdfrwt>
<totfact> 0.62159206E+03</totfact>
</mgrwt>
</event>
<event>
 9    1  0.2098759E-002  0.2749934E+03  0.7818608E-02  0.1098455E+00
          2   -1    0    0  501    0  0.00000000000E+00  0.00000000000E+00  0.18007269354E+03  0.18007269354E+03  0.00000000000E+00 0. -1.
         -2   -1    0    0    0  501 -0.00000000000E+00 -0.00000000000E+00 -0.10498731551E+03  0.10498731551E+03  0.00000000000E+00 0. -1.
         36    2    1    2    0    0  0.71054273576E-14  0.00000000000E+00  0.75085378029E+02  0.28506000906E+03  0.27499344496E+03 0.  0.
         25    2    3    3    0    0 -0.95452856318E+01  0.22519383636E+02 -0.12856267339E+02  0.13101326184E+03  0.12806621744E+03 0.  0.
         25    2    3    3    0    0  0.95452856318E+01 -0.22519383636E+02  0.87941645368E+02  0.15404674722E+03  0.12409041954E+03 0.  0.
          5    1    4    4  502    0 -0.23267937444E+02  0.35044904380E+02  0.49877680802E+02  0.65417239915E+02  0.47000000000E+01 0. -1.
         -5    1    4    4    0  502  0.13722651812E+02 -0.12525520744E+02 -0.62733948141E+02  0.65596021922E+02  0.47000000000E+01 0. -1.
          5    1    5    5  503    0  0.52933192612E+02 -0.26452981307E+02  0.41708027386E+01  0.59507719630E+02  0.47000000000E+01 0. -1.
         -5    1    5    5    0  503 -0.43387906980E+02  0.39335976704E+01  0.83770842630E+02  0.94539027590E+02  0.47000000000E+01 0. -1.
<mgrwt>
<rscale>  0 0.27499344E+03</rscale>
<asrwt>0</asrwt>
<pdfrwt beam="1">  1        2 0.27703491E-01 0.27499344E+03</pdfrwt>
<pdfrwt beam="2">  1       -2 0.16151895E-01 0.27499344E+03</pdfrwt>
<totfact> 0.57537238E+03</totfact>
</mgrwt>
</event>
<event>
 9    1  0.2098759E-002  0.2768698E+03  0.7818608E-02  0.1097411E+00
         -2   -1    0    0    0  501 -0.00000000000E+00  0.00000000000E+00  0.76293738624E+03  0.76293738624E+03  0.00000000000E+00 0.  1.
          2   -1    0    0  501    0  0.00000000000E+00 -0.00000000000E+00 -0.25118989478E+02  0.25118989478E+02  0.00000000000E+00 0.  1.
         36    2    1    2    0    0  0.00000000000E+00  0.35527136788E-14  0.73781839676E+03  0.78805637572E+03  0.27686976128E+03 0.  0.
         25    2    3    3    0    0 -0.28758381534E+02 -0.15052512841E+02  0.41465946754E+03  0.43495610090E+03  0.12724273276E+03 0.  0.
         25    2    3    3    0    0  0.28758381534E+02  0.15052512841E+02  0.32315892923E+03  0.35310027482E+03  0.13854417305E+03 0.  0.
          5    1    4    4  502    0 -0.33772432152E+02  0.46112511015E+01  0.20103653809E+02  0.39850818143E+02  0.47000000000E+01 0.  1.
         -5    1    4    4    0  502  0.50140506177E+01 -0.19663763942E+02  0.39455581373E+03  0.39510528276E+03  0.47000000000E+01 0.  1.
          5    1    5    5  503    0 -0.45428992165E+02 -0.28878608483E+02  0.97282862746E+02  0.11128258058E+03  0.47000000000E+01 0. -1.
         -5    1    5    5    0  503  0.74187373700E+02  0.43931121324E+02  0.22587606648E+03  0.24181769424E+03  0.47000000000E+01 0. -1.
<mgrwt>
<rscale>  0 0.27686976E+03</rscale>
<asrwt>0</asrwt>
<pdfrwt beam="1">  1        2 0.38644605E-02 0.27686976E+03</pdfrwt>
<pdfrwt beam="2">  1       -2 0.11737497E+00 0.27686976E+03</pdfrwt>
<totfact> 0.13012570E+03</totfact>
</mgrwt>
</event>
<event>
 9    1  0.2098759E-002  0.2737028E+03  0.7818608E-02  0.1099179E+00
          1   -1    0    0  501    0  0.00000000000E+00  0.00000000000E+00  0.14838899115E+04  0.14838899115E+04  0.00000000000E+00 0. -1.
         -1   -1    0    0    0  501 -0.00000000000E+00 -0.00000000000E+00 -0.12621087615E+02  0.12621087615E+02  0.00000000000E+00 0. -1.
         36    2    1    2    0    0 -0.71054273576E-14  0.00000000000E+00  0.14712688239E+04  0.14965109991E+04  0.27370279197E+03 0.  0.
         25    2    3    3    0    0 -0.43992436367E+02  0.29278917785E+02  0.62486196095E+03  0.63918095058E+03  0.12372238217E+03 0.  0.
         25    2    3    3    0    0  0.43992436367E+02 -0.29278917785E+02  0.84640686290E+03  0.85733004850E+03  0.12576821944E+03 0.  0.
          5    1    4    4  502    0 -0.74309237449E+00  0.53156272536E+02  0.11355078887E+03  0.12546717957E+03  0.47000000000E+01 0.  1.
         -5    1    4    4    0  502 -0.43249343993E+02 -0.23877354751E+02  0.51131117209E+03  0.51371377101E+03  0.47000000000E+01 0.  1.
          5    1    5    5  503    0  0.32041712185E+02  0.37396020911E+02  0.15752919521E+03  0.16511411521E+03  0.47000000000E+01 0.  1.
         -5    1    5    5    0  503  0.11950724182E+02 -0.66674938696E+02  0.68887766769E+03  0.69221593329E+03  0.47000000000E+01 0.  1.
<mgrwt>
<rscale>  0 0.27370279E+03</rscale>
<asrwt>0</asrwt>
<pdfrwt beam="1">  1        1 0.22829062E+00 0.27370279E+03</pdfrwt>
<pdfrwt beam="2">  1       -1 0.19417070E-02 0.27370279E+03</pdfrwt>
<totfact> 0.52517436E+03</totfact>
</mgrwt>
</event>
<event>
 9    1  0.2098759E-002  0.2757859E+03  0.7818608E-02  0.1098013E+00
          2   -1    0    0  501    0  0.00000000000E+00  0.00000000000E+00  0.16211922769E+04  0.16211922769E+04  0.00000000000E+00 0. -1.
         -2   -1    0    0    0  501 -0.00000000000E+00 -0.00000000000E+00 -0.11728690848E+02  0.11728690848E+02  0.00000000000E+00 0. -1.
         36    2    1    2    0    0 -0.14210854715E-13  0.00000000000E+00  0.16094635860E+04  0.16329209677E+04  0.27578588086E+03 0.  0.
         25    2    3    3    0    0 -0.49207358526E+02  0.16865220511E+01  0.64461349834E+03  0.65867784629E+03  0.12611793871E+03 0.  0.
         25    2    3    3    0    0  0.49207358526E+02 -0.16865220511E+01  0.96485008766E+03  0.97424312141E+03  0.12565730960E+03 0.  0.
          5    1    4    4  502    0 -0.72453876693E+02 -0.39435002102E+02  0.49078210569E+03  0.49768850590E+03  0.47000000000E+01 0. -1.
         -5    1    4    4    0  502  0.23246518167E+02  0.41121524153E+02  0.15383139265E+03  0.16098934040E+03  0.47000000000E+01 0. -1.
          5    1    5    5  503    0 -0.16342436349E+02  0.36824615866E+02  0.60813526751E+03  0.60948644049E+03  0.47000000000E+01 0. -1.
         -5    1    5    5    0  503  0.65549794874E+02 -0.38511137917E+02  0.35671482015E+03  0.36475668091E+03  0.47000000000E+01 0. -1.
<mgrwt>
<rscale>  0 0.27578588E+03</rscale>
<asrwt>0</asrwt>
<pdfrwt beam="1">  1        2 0.24941402E+00 0.27578588E+03</pdfrwt>
<pdfrwt beam="2">  1       -2 0.18044153E-02 0.27578588E+03</pdfrwt>
<totfact> 0.10578401E+04</totfact>
</mgrwt>
</event>
<event>
 9    1  0.2098759E-002  0.2751007E+03  0.7818608E-02  0.1098395E+00
         -1   -1    0    0    0  501 -0.00000000000E+00  0.00000000000E+00  0.37081469251E+02  0.37081469251E+02  0.00000000000E+00 0.  1.
          1   -1    0    0  501    0  0.00000000000E+00 -0.00000000000E+00 -0.51023066390E+03  0.51023066390E+03  0.00000000000E+00 0.  1.
         36    2    1    2    0    0  0.00000000000E+00  0.17763568394E-14 -0.47314919465E+03  0.54731213315E+03  0.27510072828E+03 0.  0.
         25    2    3    3    0    0 -0.45412944343E+02 -0.10959455074E+02 -0.29826021064E+03  0.32679962447E+03  0.12512552152E+03 0.  0.
         25    2    3    3    0    0  0.45412944343E+02  0.10959455074E+02 -0.17488898401E+03  0.22051250868E+03  0.12592523411E+03 0.  0.
          5    1    4    4  502    0 -0.58147727474E+02 -0.30263784496E+02 -0.65295173438E+02  0.92642347426E+02  0.47000000000E+01 0.  1.
         -5    1    4    4    0  502  0.12734783130E+02  0.19304329422E+02 -0.23296503720E+03  0.23415727704E+03  0.47000000000E+01 0.  1.
          5    1    5    5  503    0 -0.18254804072E+01  0.16211093083E+02  0.16247541481E+02  0.23499032359E+02  0.47000000000E+01 0. -1.
         -5    1    5    5    0  503  0.47238424750E+02 -0.52516380085E+01 -0.19113652550E+03  0.19701347632E+03  0.47000000000E+01 0. -1.
<mgrwt>
<rscale>  0 0.27510073E+03</rscale>
<asrwt>0</asrwt>
<pdfrwt beam="1">  1        1 0.78497024E-01 0.27510073E+03</pdfrwt>
<pdfrwt beam="2">  1       -1 0.57048415E-02 0.27510073E+03</pdfrwt>
<totfact> 0.63083425E+03</totfact>
</mgrwt>
</event>
<event>
 9    1  0.2098759E-002  0.2769961E+03  0.7818608E-02  0.1097341E+00
         -1   -1    0    0    0  501 -0.00000000000E+00  0.00000000000E+00  0.32897283686E+02  0.32897283686E+02  0.00000000000E+00 0. -1.
          1   -1    0    0  501    0  0.00000000000E+00 -0.00000000000E+00 -0.58307885349E+03  0.58307885349E+03  0.00000000000E+00 0. -1.
         36    2    1    2    0    0  0.00000000000E+00  0.71054273576E-14 -0.55018156980E+03  0.61597613717E+03  0.27699610434E+03 0.  0.
         25    2    3    3    0    0  0.46113370693E+02 -0.34285494611E+02 -0.29547545260E+03  0.32749070912E+03  0.12900574939E+03 0.  0.
         25    2    3    3    0    0 -0.46113370693E+02  0.34285494611E+02 -0.25470611721E+03  0.28848542806E+03  0.12266498262E+03 0.  0.
          5    1    4    4  502    0  0.69427421723E+02 -0.65543228016E+02 -0.24853623018E+03  0.26628636717E+03  0.47000000000E+01 0.  1.
         -5    1    4    4    0  502 -0.23314051030E+02  0.31257733405E+02 -0.46939222415E+02  0.61204341953E+02  0.47000000000E+01 0.  1.
          5    1    5    5  503    0 -0.69377302854E+02 -0.22896730863E+02 -0.12782945751E+03  0.14730896322E+03  0.47000000000E+01 0.  1.
         -5    1    5    5    0  503  0.23263932161E+02  0.57182225474E+02 -0.12687665969E+03  0.14117646484E+03  0.47000000000E+01 0.  1.
<mgrwt>
<rscale>  0 0.27699610E+03</rscale>
<asrwt>0</asrwt>
<pdfrwt beam="1">  1        1 0.89704438E-01 0.27699610E+03</pdfrwt>
<pdfrwt beam="2">  1       -1 0.50611206E-02 0.27699610E+03</pdfrwt>
<totfact> 0.63031423E+03</totfact>
</mgrwt>
</event>
<event>
 9    1  0.2098759E-002  0.2751908E+03  0.7818608E-02  0.1098345E+00
         -1   -1    0    0    0  501 -0.00000000000E+00  0.00000000000E+00  0.13525637923E+02  0.13525637923E+02  0.00000000000E+00 0.  1.
          1   -1    0    0  501    0  0.00000000000E+00 -0.00000000000E+00 -0.13997485484E+04  0.13997485484E+04  0.00000000000E+00 0.  1.
         36    2    1    2    0    0  0.00000000000E+00  0.71054273576E-14 -0.13862229105E+04  0.14132741863E+04  0.27519078508E+03 0.  0.
         25    2    3    3    0    0 -0.47571765352E+02  0.45917773676E+01 -0.74698885199E+03  0.76020104313E+03  0.13277471034E+03 0.  0.
         25    2    3    3    0    0  0.47571765352E+02 -0.45917773676E+01 -0.63923405849E+03  0.65307314319E+03  0.12490072677E+03 0.  0.
          5    1    4    4  502    0 -0.16399709320E+02  0.63192102501E+02 -0.50521624010E+03  0.50943864355E+03  0.47000000000E+01 0.  1.
         -5    1    4    4    0  502 -0.31172056032E+02 -0.58600325133E+02 -0.24177261189E+03  0.25076239958E+03  0.47000000000E+01 0.  1.
          5    1    5    5  503    0  0.27655599147E+02 -0.55240387550E+02 -0.17513991896E+03  0.18577517002E+03  0.47000000000E+01 0.  1.
         -5    1    5    5    0  503  0.19916166205E+02  0.50648610183E+02 -0.46409413953E+03  0.46729797318E+03  0.47000000000E+01 0.  1.
<mgrwt>
<rscale>  0 0.27519079E+03</rscale>
<asrwt>0</asrwt>
<pdfrwt beam="1">  1        1 0.21534590E+00 0.27519079E+03</pdfrwt>
<pdfrwt beam="2">  1       -1 0.20808676E-02 0.27519079E+03</pdfrwt>
<totfact> 0.54019830E+03</totfact>
</mgrwt>
</event>
<event>
 9    1  0.2098759E-002  0.2776037E+03  0.7818608E-02  0.1097005E+00
         -1   -1    0    0    0  501 -0.00000000000E+00  0.00000000000E+00  0.39968851780E+03  0.39968851780E+03  0.00000000000E+00 0. -1.
          1   -1    0    0  501    0  0.00000000000E+00 -0.00000000000E+00 -0.48202435422E+02  0.48202435422E+02  0.00000000000E+00 0. -1.
         36    2    1    2    0    0 -0.71054273576E-14 -0.17763568394E-14  0.35148608237E+03  0.44789095322E+03  0.27760374614E+03 0.  0.
         25    2    3    3    0    0  0.34178724292E+02 -0.15354785439E+02  0.11199102498E+03  0.17476342829E+03  0.12882667256E+03 0.  0.
         25    2    3    3    0    0 -0.34178724292E+02  0.15354785439E+02  0.23949505739E+03  0.27312752493E+03  0.12584437901E+03 0.  0.
          5    1    4    4  502    0  0.75775435244E+02 -0.13967960721E+02  0.10791260193E+03  0.13268097138E+03  0.47000000000E+01 0.  1.
         -5    1    4    4    0  502 -0.41596710952E+02 -0.13868247186E+01  0.40784230567E+01  0.42082456908E+02  0.47000000000E+01 0.  1.
          5    1    5    5  503    0  0.12243671603E+02  0.61771105457E+02  0.91690488807E+02  0.11133199316E+03  0.47000000000E+01 0. -1.
         -5    1    5    5    0  503 -0.46422395895E+02 -0.46416320017E+02  0.14780456858E+03  0.16179553176E+03  0.47000000000E+01 0. -1.
<mgrwt>
<rscale>  0 0.27760375E+03</rscale>
<asrwt>0</asrwt>
<pdfrwt beam="1">  1        1 0.74157595E-02 0.27760375E+03</pdfrwt>
<pdfrwt beam="2">  1       -1 0.61490539E-01 0.27760375E+03</pdfrwt>
<totfact> 0.26665770E+03</totfact>
</mgrwt>
</event>
<event>
 9    1  0.2098759E-002  0.2752079E+03  0.7818608E-02  0.1098335E+00
         -2   -1    0    0    0  501 -0.00000000000E+00  0.00000000000E+00  0.18677546199E+02  0.18677546199E+02  0.00000000000E+00 0. -1.
          2   -1    0    0  501    0  0.00000000000E+00 -0.00000000000E+00 -0.10137762800E+04  0.10137762800E+04  0.00000000000E+00 0. -1.
         36    2    1    2    0    0  0.00000000000E+00  0.00000000000E+00 -0.99509873377E+03  0.10324538262E+04  0.27520794541E+03 0.  0.
         25    2    3    3    0    0  0.46538650442E+02  0.23499080740E+02 -0.34313915999E+03  0.36706418029E+03  0.11947207437E+03 0.  0.
         25    2    3    3    0    0 -0.46538650442E+02 -0.23499080740E+02 -0.65195957378E+03  0.66538964587E+03  0.12236846904E+03 0.  0.
          5    1    4    4  502    0  0.19943712422E+02 -0.29761936206E+02 -0.27107552235E+03  0.27347313091E+03  0.47000000000E+01 0. -1.
         -5    1    4    4    0  502  0.26594938019E+02  0.53261016946E+02 -0.72063637638E+02  0.93591049380E+02  0.47000000000E+01 0. -1.
          5    1    5    5  503    0 -0.60311965462E+02 -0.41837868942E+00 -0.13765635316E+03  0.15036312641E+03  0.47000000000E+01 0.  1.
         -5    1    5    5    0  503  0.13773315020E+02 -0.23080702051E+02 -0.51430322061E+03  0.51502651946E+03  0.47000000000E+01 0.  1.
<mgrwt>
<rscale>  0 0.27520795E+03</rscale>
<asrwt>0</asrwt>
<pdfrwt beam="1">  1        2 0.15596560E+00 0.27520795E+03</pdfrwt>
<pdfrwt beam="2">  1       -2 0.28734682E-02 0.27520795E+03</pdfrwt>
<totfact> 0.11603388E+04</totfact>
</mgrwt>
</event>
<event>
 9    1  0.2098759E-002  0.2766984E+03  0.7818608E-02  0.1097506E+00
         -2   -1    0    0    0  501 -0.00000000000E+00  0.00000000000E+00  0.85275737773E+02  0.85275737773E+02  0.00000000000E+00 0. -1.
          2   -1    0    0  501    0  0.00000000000E+00 -0.00000000000E+00 -0.22445427378E+03  0.22445427378E+03  0.00000000000E+00 0. -1.
         36    2    1    2    0    0  0.00000000000E+00 -0.17763568394E-14 -0.13917853601E+03  0.30973001156E+03  0.27669841917E+03 0.  0.
         25    2    3    3    0    0  0.35032680257E+02  0.87159681126E+01 -0.15920120507E+03  0.20803242041E+03  0.12895428438E+03 0.  0.
         25    2    3    3    0    0 -0.35032680257E+02 -0.87159681126E+01  0.20022669060E+02  0.10169759114E+03  0.92942110919E+02 0.  0.
          5    1    4    4  502    0  0.65456324414E+02  0.39382905090E+02 -0.14197379275E+03  0.16128915478E+03  0.47000000000E+01 0.  1.
         -5    1    4    4    0  502 -0.30423644157E+02 -0.30666936977E+02 -0.17227412316E+02  0.46743265637E+02  0.47000000000E+01 0.  1.
          5    1    5    5  503    0  0.30600988145E+02  0.65447521019E+01  0.11239292353E+02  0.33580737754E+02  0.47000000000E+01 0.  1.
         -5    1    5    5    0  503 -0.65633668402E+02 -0.15260720214E+02  0.87833767075E+01  0.68116853390E+02  0.47000000000E+01 0.  1.
<mgrwt>
<rscale>  0 0.27669842E+03</rscale>
<asrwt>0</asrwt>
<pdfrwt beam="1">  1        2 0.34531427E-01 0.27669842E+03</pdfrwt>
<pdfrwt beam="2">  1       -2 0.13119344E-01 0.27669842E+03</pdfrwt>
<totfact> 0.63679961E+03</totfact>
</mgrwt>
</event>
<event>
 9    1  0.2098759E-002  0.2745664E+03  0.7818608E-02  0.1098694E+00
          1   -1    0    0  501    0  0.00000000000E+00  0.00000000000E+00  0.71557733192E+02  0.71557733192E+02  0.00000000000E+00 0. -1.
         -1   -1    0    0    0  501 -0.00000000000E+00 -0.00000000000E+00 -0.26337727614E+03  0.26337727614E+03  0.00000000000E+00 0. -1.
         36    2    1    2    0    0  0.00000000000E+00  0.17763568394E-14 -0.19181954295E+03  0.33493500933E+03  0.27456642806E+03 0.  0.
         25    2    3    3    0    0  0.38811505121E+02  0.10357378809E+02 -0.50627003035E+02  0.14092768452E+03  0.12523542071E+03 0.  0.
         25    2    3    3    0    0 -0.38811505121E+02 -0.10357378809E+02 -0.14119253991E+03  0.19400732481E+03  0.12684597167E+03 0.  0.
          5    1    4    4  502    0  0.26851281647E+02  0.53968604733E+02 -0.69131174617E+02  0.91841226728E+02  0.47000000000E+01 0. -1.
         -5    1    4    4    0  502  0.11960223475E+02 -0.43611225924E+02  0.18504171583E+02  0.49086457788E+02  0.47000000000E+01 0. -1.
          5    1    5    5  503    0 -0.57837466848E+02 -0.26278896920E+02 -0.15329719024E+03  0.16600563704E+03  0.47000000000E+01 0.  1.
         -5    1    5    5    0  503  0.19025961727E+02  0.15921518110E+02  0.12104650326E+02  0.28001687772E+02  0.47000000000E+01 0.  1.
<mgrwt>
<rscale>  0 0.27456643E+03</rscale>
<asrwt>0</asrwt>
<pdfrwt beam="1">  1        1 0.11008882E-01 0.27456643E+03</pdfrwt>
<pdfrwt beam="2">  1       -1 0.40519581E-01 0.27456643E+03</pdfrwt>
<totfact> 0.33834852E+03</totfact>
</mgrwt>
</event>
<event>
 9    1  0.2098759E-002  0.2752810E+03  0.7818608E-02  0.1098295E+00
          2   -1    0    0  501    0  0.00000000000E+00  0.00000000000E+00  0.18647153289E+04  0.18647153289E+04  0.00000000000E+00 0. -1.
         -2   -1    0    0    0  501 -0.00000000000E+00 -0.00000000000E+00 -0.10159681485E+02  0.10159681485E+02  0.00000000000E+00 0. -1.
         36    2    1    2    0    0  0.00000000000E+00 -0.88817841970E-15  0.18545556474E+04  0.18748750104E+04  0.27528104767E+03 0.  0.
         25    2    3    3    0    0 -0.57192616274E+02  0.49543512816E+01  0.97973969085E+03  0.98941662608E+03  0.12553826981E+03 0.  0.
         25    2    3    3    0    0  0.57192616274E+02 -0.49543512816E+01  0.87481595653E+03  0.88545838427E+03  0.12424995581E+03 0.  0.
          5    1    4    4  502    0 -0.58935843148E+01  0.31065490928E+02  0.79974009625E+03  0.80037872949E+03  0.47000000000E+01 0.  1.
         -5    1    4    4    0  502 -0.51299031959E+02 -0.26111139646E+02  0.17999959460E+03  0.18903789660E+03  0.47000000000E+01 0.  1.
          5    1    5    5  503    0  0.89169579824E+00 -0.72824374033E+01 -0.10336760941E+00  0.87137650182E+01  0.47000000000E+01 0. -1.
         -5    1    5    5    0  503  0.56300920476E+02  0.23280861218E+01  0.87491932414E+03  0.87674461925E+03  0.47000000000E+01 0. -1.
<mgrwt>
<rscale>  0 0.27528105E+03</rscale>
<asrwt>0</asrwt>
<pdfrwt beam="1">  1        2 0.28687901E+00 0.27528105E+03</pdfrwt>
<pdfrwt beam="2">  1       -2 0.15630294E-02 0.27528105E+03</pdfrwt>
<totfact> 0.97206715E+03</totfact>
</mgrwt>
</event>
<event>
 9    1  0.2098759E-002  0.2719935E+03  0.7818608E-02  0.1100144E+00
          2   -1    0    0  501    0  0.00000000000E+00  0.00000000000E+00  0.25990694273E+02  0.25990694273E+02  0.00000000000E+00 0. -1.
         -2   -1    0    0    0  501 -0.00000000000E+00 -0.00000000000E+00 -0.71160544658E+03  0.71160544658E+03  0.00000000000E+00 0. -1.
         36    2    1    2    0    0  0.44408920985E-15  0.71054273576E-14 -0.68561475231E+03  0.73759614085E+03  0.27199352643E+03 0.  0.
         25    2    3    3    0    0  0.23994827510E+01 -0.39246338406E+02 -0.42989681097E+03  0.44940064688E+03  0.12491453372E+03 0.  0.
         25    2    3    3    0    0 -0.23994827510E+01  0.39246338406E+02 -0.25571794133E+03  0.28819549397E+03  0.12696040576E+03 0.  0.
          5    1    4    4  502    0 -0.39049131033E+01  0.22619590523E+02 -0.33517105805E+03  0.33598902121E+03  0.47000000000E+01 0.  1.
         -5    1    4    4    0  502  0.63043958543E+01 -0.61865928929E+02 -0.94725752927E+02  0.11341162567E+03  0.47000000000E+01 0.  1.
          5    1    5    5  503    0  0.29054944761E+02 -0.26094455077E+02 -0.25736505824E+02  0.47006043578E+02  0.47000000000E+01 0.  1.
         -5    1    5    5    0  503 -0.31454427512E+02  0.65340793483E+02 -0.22998143551E+03  0.24118945040E+03  0.47000000000E+01 0.  1.
<mgrwt>
<rscale>  0 0.27199353E+03</rscale>
<asrwt>0</asrwt>
<pdfrwt beam="1">  1        2 0.39985685E-02 0.27199353E+03</pdfrwt>
<pdfrwt beam="2">  1       -2 0.10947776E+00 0.27199353E+03</pdfrwt>
<totfact> 0.14671562E+03</totfact>
</mgrwt>
</event>
<event>
 9    1  0.2098759E-002  0.2759930E+03  0.7818608E-02  0.1097898E+00
         -1   -1    0    0    0  501 -0.00000000000E+00  0.00000000000E+00  0.44194200180E+03  0.44194200180E+03  0.00000000000E+00 0.  1.
          1   -1    0    0  501    0  0.00000000000E+00 -0.00000000000E+00 -0.43089447620E+02  0.43089447620E+02  0.00000000000E+00 0.  1.
         36    2    1    2    0    0  0.71054273576E-14 -0.71054273576E-14  0.39885255418E+03  0.48503144942E+03  0.27599301975E+03 0.  0.
         25    2    3    3    0    0 -0.40157158987E+02  0.37961209670E+02  0.19751912609E+03  0.24022916215E+03  0.12507035746E+03 0.  0.
         25    2    3    3    0    0  0.40157158987E+02 -0.37961209670E+02  0.20133342808E+03  0.24480228727E+03  0.12782550501E+03 0.  0.
          5    1    4    4  502    0 -0.67924829764E+02  0.65276922815E+02  0.16118501293E+03  0.18675534141E+03  0.47000000000E+01 0. -1.
         -5    1    4    4    0  502  0.27767670777E+02 -0.27315713145E+02  0.36334113161E+02  0.53473820737E+02  0.47000000000E+01 0. -1.
          5    1    5    5  503    0  0.61818763757E+02  0.27596072989E+02  0.12135331559E+03  0.13903891542E+03  0.47000000000E+01 0. -1.
         -5    1    5    5    0  503 -0.21661604770E+02 -0.65557282659E+02  0.79980112493E+02  0.10576337185E+03  0.47000000000E+01 0. -1.
<mgrwt>
<rscale>  0 0.27599302E+03</rscale>
<asrwt>0</asrwt>
<pdfrwt beam="1">  1        1 0.66291461E-02 0.27599302E+03</pdfrwt>
<pdfrwt beam="2">  1       -1 0.67991074E-01 0.27599302E+03</pdfrwt>
<totfact> 0.25527023E+03</totfact>
</mgrwt>
</event>
<event>
 9    1  0.2098759E-002  0.2720556E+03  0.7818608E-02  0.1100109E+00
          2   -1    0    0  501    0  0.00000000000E+00  0.00000000000E+00  0.43126221160E+03  0.43126221160E+03  0.00000000000E+00 0. -1.
         -2   -1    0    0    0  501 -0.00000000000E+00 -0.00000000000E+00 -0.42905594906E+02  0.42905594906E+02  0.00000000000E+00 0. -1.
         36    2    1    2    0    0 -0.35527136788E-14 -0.35527136788E-14  0.38835661669E+03  0.47416780650E+03  0.27205559541E+03 0.  0.
         25    2    3    3    0    0  0.11058998555E+02 -0.31306160470E+01  0.21531698849E+03  0.24859377206E+03  0.12371481629E+03 0.  0.
         25    2    3    3    0    0 -0.11058998555E+02  0.31306160470E+01  0.17303962820E+03  0.22557403444E+03  0.14425265987E+03 0.  0.
          5    1    4    4  502    0  0.27398495488E+02  0.55272278257E+02  0.12812801324E+03  0.14228344976E+03  0.47000000000E+01 0. -1.
         -5    1    4    4    0  502 -0.16339496933E+02 -0.58402894304E+02  0.87188975248E+02  0.10631032230E+03  0.47000000000E+01 0. -1.
          5    1    5    5  503    0 -0.68300400852E+02  0.30854452253E+02  0.61389968011E+02  0.96993608825E+02  0.47000000000E+01 0. -1.
         -5    1    5    5    0  503  0.57241402297E+02 -0.27723836206E+02  0.11164966019E+03  0.12858042562E+03  0.47000000000E+01 0. -1.
<mgrwt>
<rscale>  0 0.27205560E+03</rscale>
<asrwt>0</asrwt>
<pdfrwt beam="1">  1        2 0.66348030E-01 0.27205560E+03</pdfrwt>
<pdfrwt beam="2">  1       -2 0.66008610E-02 0.27205560E+03</pdfrwt>
<totfact> 0.93139875E+03</totfact>
</mgrwt>
</event>
<event>
 9    1  0.2098759E-002  0.2747420E+03  0.7818608E-02  0.1098596E+00
          1   -1    0    0  501    0  0.00000000000E+00  0.00000000000E+00  0.17754255881E+03  0.17754255881E+03  0.00000000000E+00 0. -1.
         -1   -1    0    0    0  501 -0.00000000000E+00 -0.00000000000E+00 -0.10628882809E+03  0.10628882809E+03  0.00000000000E+00 0. -1.
         36    2    1    2    0    0  0.17763568394E-14  0.14210854715E-13  0.71253730718E+02  0.28383138690E+03  0.27474199178E+03 0.  0.
         25    2    3    3    0    0  0.64362778054E+01  0.57637648275E+02  0.40099956732E+02  0.14366952156E+03  0.12517747691E+03 0.  0.
         25    2    3    3    0    0 -0.64362778054E+01 -0.57637648275E+02  0.31153773987E+02  0.14016186534E+03  0.12373870329E+03 0.  0.
          5    1    4    4  502    0  0.83746631635E+01 -0.35729080807E+02  0.33535760951E+02  0.49934351513E+02  0.47000000000E+01 0. -1.
         -5    1    4    4    0  502 -0.19383853580E+01  0.93366729083E+02  0.65641957808E+01  0.93735170047E+02  0.47000000000E+01 0. -1.
          5    1    5    5  503    0  0.19458539356E+02  0.65134598502E+01 -0.37233110125E+02  0.42772121792E+02  0.47000000000E+01 0. -1.
         -5    1    5    5    0  503 -0.25894817161E+02 -0.64151108126E+02  0.68386884111E+02  0.97389743546E+02  0.47000000000E+01 0. -1.
<mgrwt>
<rscale>  0 0.27474199E+03</rscale>
<asrwt>0</asrwt>
<pdfrwt beam="1">  1        1 0.27314240E-01 0.27474199E+03</pdfrwt>
<pdfrwt beam="2">  1       -1 0.16352127E-01 0.27474199E+03</pdfrwt>
<totfact> 0.47452529E+03</totfact>
</mgrwt>
</event>
<event>
 9    1  0.2098759E-002  0.2748946E+03  0.7818608E-02  0.1098511E+00
         -2   -1    0    0    0  501 -0.00000000000E+00  0.00000000000E+00  0.29137467275E+02  0.29137467275E+02  0.00000000000E+00 0.  1.
          2   -1    0    0  501    0  0.00000000000E+00 -0.00000000000E+00 -0.64836663187E+03  0.64836663187E+03  0.00000000000E+00 0.  1.
         36    2    1    2    0    0 -0.35527136788E-14  0.71054273576E-14 -0.61922916459E+03  0.67750409914E+03  0.27489460903E+03 0.  0.
         25    2    3    3    0    0 -0.14246583335E+02 -0.43800212479E+02 -0.24212850348E+03  0.27681459929E+03  0.12601065999E+03 0.  0.
         25    2    3    3    0    0  0.14246583335E+02  0.43800212479E+02 -0.37710066112E+03  0.40068949986E+03  0.12738030826E+03 0.  0.
          5    1    4    4  502    0 -0.23288276740E+02 -0.77944102041E+02 -0.22063704706E+03  0.23520294091E+03  0.47000000000E+01 0.  1.
         -5    1    4    4    0  502  0.90416934049E+01  0.34143889562E+02 -0.21491456417E+02  0.41611658378E+02  0.47000000000E+01 0.  1.
          5    1    5    5  503    0  0.61845248229E+02  0.56441285394E+02 -0.26981244639E+03  0.28254433219E+03  0.47000000000E+01 0. -1.
         -5    1    5    5    0  503 -0.47598664894E+02 -0.12641072915E+02 -0.10728821473E+03  0.11814516767E+03  0.47000000000E+01 0. -1.
<mgrwt>
<rscale>  0 0.27489461E+03</rscale>
<asrwt>0</asrwt>
<pdfrwt beam="1">  1        2 0.99748716E-01 0.27489461E+03</pdfrwt>
<pdfrwt beam="2">  1       -2 0.44826871E-02 0.27489461E+03</pdfrwt>
<totfact> 0.10596197E+04</totfact>
</mgrwt>
</event>
<event>
 9    1  0.2098759E-002  0.2752329E+03  0.7818608E-02  0.1098321E+00
          1   -1    0    0  501    0  0.00000000000E+00  0.00000000000E+00  0.44608384533E+03  0.44608384533E+03  0.00000000000E+00 0. -1.
         -1   -1    0    0    0  501 -0.00000000000E+00 -0.00000000000E+00 -0.42454557370E+02  0.42454557370E+02  0.00000000000E+00 0. -1.
         36    2    1    2    0    0  0.44408920985E-15  0.00000000000E+00  0.40362928796E+03  0.48853840270E+03  0.27523293555E+03 0.  0.
         25    2    3    3    0    0  0.15498346363E+01  0.16041922159E+01  0.10396084275E+03  0.16278328186E+03  0.12524202413E+03 0.  0.
         25    2    3    3    0    0 -0.15498346363E+01 -0.16041922159E+01  0.29966844521E+03  0.32575512084E+03  0.12771157457E+03 0.  0.
          5    1    4    4  502    0  0.11052271172E+01 -0.53762468106E+02  0.11935726660E+02  0.55282692361E+02  0.47000000000E+01 0. -1.
         -5    1    4    4    0  502  0.44460751914E+00  0.55366660322E+02  0.92025116089E+02  0.10750058950E+03  0.47000000000E+01 0. -1.
          5    1    5    5  503    0  0.64887389507E+01  0.58610789131E+02  0.20337291216E+03  0.21180169908E+03  0.47000000000E+01 0. -1.
         -5    1    5    5    0  503 -0.80385735870E+01 -0.60214981347E+02  0.96295533054E+02  0.11395342176E+03  0.47000000000E+01 0. -1.
<mgrwt>
<rscale>  0 0.27523294E+03</rscale>
<asrwt>0</asrwt>
<pdfrwt beam="1">  1        1 0.68628281E-01 0.27523294E+03</pdfrwt>
<pdfrwt beam="2">  1       -1 0.65314707E-02 0.27523294E+03</pdfrwt>
<totfact> 0.61386514E+03</totfact>
</mgrwt>
</event>
<event>
 9    1  0.2098759E-002  0.2750005E+03  0.7818608E-02  0.1098451E+00
          1   -1    0    0  501    0  0.00000000000E+00  0.00000000000E+00  0.98883622698E+03  0.98883622698E+03  0.00000000000E+00 0. -1.
         -1   -1    0    0    0  501 -0.00000000000E+00 -0.00000000000E+00 -0.19119770604E+02  0.19119770604E+02  0.00000000000E+00 0. -1.
         36    2    1    2    0    0  0.00000000000E+00 -0.10658141036E-13  0.96971645638E+03  0.10079559976E+04  0.27500052236E+03 0.  0.
         25    2    3    3    0    0  0.32421877904E+02  0.30697699178E+02  0.34535314612E+03  0.36946888573E+03  0.12347038140E+03 0.  0.
         25    2    3    3    0    0 -0.32421877904E+02 -0.30697699178E+02  0.62436331025E+03  0.63848711186E+03  0.12586787482E+03 0.  0.
          5    1    4    4  502    0 -0.27637804802E+02  0.33916455737E+02  0.44335343653E+02  0.62465085615E+02  0.47000000000E+01 0. -1.
         -5    1    4    4    0  502  0.60059682707E+02 -0.32187565589E+01  0.30101780247E+03  0.30700380012E+03  0.47000000000E+01 0. -1.
          5    1    5    5  503    0  0.18138673285E+01  0.42187490977E+02  0.34826939418E+03  0.35085144354E+03  0.47000000000E+01 0. -1.
         -5    1    5    5    0  503 -0.34235745233E+02 -0.72885190156E+02  0.27609391607E+03  0.28763566832E+03  0.47000000000E+01 0. -1.
<mgrwt>
<rscale>  0 0.27500052E+03</rscale>
<asrwt>0</asrwt>
<pdfrwt beam="1">  1        1 0.15212861E+00 0.27500052E+03</pdfrwt>
<pdfrwt beam="2">  1       -1 0.29415039E-02 0.27500052E+03</pdfrwt>
<totfact> 0.63272808E+03</totfact>
</mgrwt>
</event>
<event>
 9    1  0.2098759E-002  0.2746774E+03  0.7818608E-02  0.1098632E+00
          1   -1    0    0  501    0  0.00000000000E+00  0.00000000000E+00  0.32883218524E+03  0.32883218524E+03  0.00000000000E+00 0.  1.
         -1   -1    0    0    0  501 -0.00000000000E+00 -0.00000000000E+00 -0.57360304025E+02  0.57360304025E+02  0.00000000000E+00 0.  1.
         36    2    1    2    0    0  0.71054273576E-14  0.00000000000E+00  0.27147188122E+03  0.38619248927E+03  0.27467736797E+03 0.  0.
         25    2    3    3    0    0  0.50718357210E+02  0.98078042784E+00  0.10136769913E+03  0.16894946133E+03  0.12528047082E+03 0.  0.
         25    2    3    3    0    0 -0.50718357210E+02 -0.98078042784E+00  0.17010418209E+03  0.21724302794E+03  0.12524291092E+03 0.  0.
          5    1    4    4  502    0  0.88628302883E+02 -0.16973275890E+02  0.83774601352E+02  0.12322070442E+03  0.47000000000E+01 0.  1.
         -5    1    4    4    0  502 -0.37909945674E+02  0.17954056318E+02  0.17593097782E+02  0.45728756913E+02  0.47000000000E+01 0.  1.
          5    1    5    5  503    0  0.32322421699E+02  0.27546005684E+02  0.31432386276E+02  0.53043437677E+02  0.47000000000E+01 0.  1.
         -5    1    5    5    0  503 -0.83040778908E+02 -0.28526786112E+02  0.13867179581E+03  0.16419959026E+03  0.47000000000E+01 0.  1.
<mgrwt>
<rscale>  0 0.27467737E+03</rscale>
<asrwt>0</asrwt>
<pdfrwt beam="1">  1        1 0.50589566E-01 0.27467737E+03</pdfrwt>
<pdfrwt beam="2">  1       -1 0.88246624E-02 0.27467737E+03</pdfrwt>
<totfact> 0.57317451E+03</totfact>
</mgrwt>
</event>
<event>
 9    1  0.2098759E-002  0.2754309E+03  0.7818608E-02  0.1098211E+00
          2   -1    0    0  501    0  0.00000000000E+00  0.00000000000E+00  0.96723252960E+03  0.96723252960E+03  0.00000000000E+00 0. -1.
         -2   -1    0    0    0  501 -0.00000000000E+00 -0.00000000000E+00 -0.19608052005E+02  0.19608052005E+02  0.00000000000E+00 0. -1.
         36    2    1    2    0    0  0.00000000000E+00 -0.88817841970E-15  0.94762447760E+03  0.98684058161E+03  0.27543090416E+03 0.  0.
         25    2    3    3    0    0  0.51637744892E+02  0.22590080686E+01  0.49467015557E+03  0.51429475907E+03  0.13087771615E+03 0.  0.
         25    2    3    3    0    0 -0.51637744892E+02 -0.22590080686E+01  0.45295432203E+03  0.47254582253E+03  0.12433976329E+03 0.  0.
          5    1    4    4  502    0 -0.16275266807E+02 -0.52869014880E+01  0.31477178508E+01  0.18023145249E+02  0.47000000000E+01 0.  1.
         -5    1    4    4    0  502  0.67913011699E+02  0.75459095566E+01  0.49152243772E+03  0.49627161382E+03  0.47000000000E+01 0.  1.
          5    1    5    5  503    0  0.89515431156E+01 -0.12626443289E+02  0.36376032394E+03  0.36411978863E+03  0.47000000000E+01 0. -1.
         -5    1    5    5    0  503 -0.60589288007E+02  0.10367435221E+02  0.89193998084E+02  0.10842603391E+03  0.47000000000E+01 0. -1.
<mgrwt>
<rscale>  0 0.27543090E+03</rscale>
<asrwt>0</asrwt>
<pdfrwt beam="1">  1        2 0.14880497E+00 0.27543090E+03</pdfrwt>
<pdfrwt beam="2">  1       -2 0.30166241E-02 0.27543090E+03</pdfrwt>
<totfact> 0.11530156E+04</totfact>
</mgrwt>
</event>
<event>
 9    1  0.2098759E-002  0.2752927E+03  0.7818608E-02  0.1098288E+00
         -1   -1    0    0    0  501 -0.00000000000E+00  0.00000000000E+00  0.23364625969E+03  0.23364625969E+03  0.00000000000E+00 0. -1.
          1   -1    0    0  501    0  0.00000000000E+00 -0.00000000000E+00 -0.81090608974E+02  0.81090608974E+02  0.00000000000E+00 0. -1.
         36    2    1    2    0    0  0.35527136788E-14 -0.14210854715E-13  0.15255565072E+03  0.31473686867E+03  0.27529269865E+03 0.  0.
         25    2    3    3    0    0 -0.82223463216E+01  0.49153171872E+02  0.10123626660E+03  0.16981238472E+03  0.12690083942E+03 0.  0.
         25    2    3    3    0    0  0.82223463216E+01 -0.49153171872E+02  0.51319384117E+02  0.14492448394E+03  0.12603882567E+03 0.  0.
          5    1    4    4  502    0  0.57762807265E+02  0.26108901909E+02  0.31397216722E+02  0.70894935503E+02  0.47000000000E+01 0.  1.
         -5    1    4    4    0  502 -0.65985153587E+02  0.23044269963E+02  0.69839049879E+02  0.98917449219E+02  0.47000000000E+01 0.  1.
          5    1    5    5  503    0 -0.20802657420E+02 -0.72856576582E+02  0.69577154132E+02  0.10297524792E+03  0.47000000000E+01 0. -1.
         -5    1    5    5    0  503  0.29025003742E+02  0.23703404710E+02 -0.18257770015E+02  0.41949236024E+02  0.47000000000E+01 0. -1.
<mgrwt>
<rscale>  0 0.27529270E+03</rscale>
<asrwt>0</asrwt>
<pdfrwt beam="1">  1        1 0.12475478E-01 0.27529270E+03</pdfrwt>
<pdfrwt beam="2">  1       -1 0.35945578E-01 0.27529270E+03</pdfrwt>
<totfact> 0.35373386E+03</totfact>
</mgrwt>
</event>
<event>
 9    1  0.2098759E-002  0.2763320E+03  0.7818608E-02  0.1097709E+00
          2   -1    0    0  501    0  0.00000000000E+00  0.00000000000E+00  0.95480249852E+03  0.95480249852E+03  0.00000000000E+00 0. -1.
         -2   -1    0    0    0  501 -0.00000000000E+00 -0.00000000000E+00 -0.19993503395E+02  0.19993503395E+02  0.00000000000E+00 0. -1.
         36    2    1    2    0    0  0.00000000000E+00  0.71054273576E-14  0.93480899512E+03  0.97479600192E+03  0.27633202490E+03 0.  0.
         25    2    3    3    0    0  0.14886998255E+02 -0.49554988738E+02  0.40839136206E+03  0.43060174040E+03  0.12632115662E+03 0.  0.
         25    2    3    3    0    0 -0.14886998255E+02  0.49554988738E+02  0.52641763307E+03  0.54419426151E+03  0.12788491011E+03 0.  0.
          5    1    4    4  502    0  0.20895444714E+02  0.26329050862E+02  0.32292461094E+02  0.46847962310E+02  0.47000000000E+01 0.  1.
         -5    1    4    4    0  502 -0.60084464590E+01 -0.75884039600E+02  0.37609890096E+03  0.38375377809E+03  0.47000000000E+01 0.  1.
          5    1    5    5  503    0  0.11406576283E+02  0.47002149906E+02  0.51088459448E+03  0.51319048213E+03  0.47000000000E+01 0.  1.
         -5    1    5    5    0  503 -0.26293574538E+02  0.25528388316E+01  0.15533038595E+02  0.31003779383E+02  0.47000000000E+01 0.  1.
<mgrwt>
<rscale>  0 0.27633202E+03</rscale>
<asrwt>0</asrwt>
<pdfrwt beam="1">  1        2 0.14689266E+00 0.27633202E+03</pdfrwt>
<pdfrwt beam="2">  1       -2 0.30759243E-02 0.27633202E+03</pdfrwt>
<totfact> 0.11403897E+04</totfact>
</mgrwt>
</event>
<event>
 9    1  0.2098759E-002  0.2751574E+03  0.7818608E-02  0.1098364E+00
         -1   -1    0    0    0  501 -0.00000000000E+00  0.00000000000E+00  0.30639123341E+02  0.30639123341E+02  0.00000000000E+00 0.  1.
          1   -1    0    0  501    0  0.00000000000E+00 -0.00000000000E+00 -0.61776891824E+03  0.61776891824E+03  0.00000000000E+00 0.  1.
         36    2    1    2    0    0 -0.71054273576E-14  0.00000000000E+00 -0.58712979490E+03  0.64840804158E+03  0.27515739556E+03 0.  0.
         25    2    3    3    0    0  0.55174042757E+02 -0.57253235771E+01 -0.27591107044E+03  0.30847665116E+03  0.12630903052E+03 0.  0.
         25    2    3    3    0    0 -0.55174042757E+02  0.57253235771E+01 -0.31121872446E+03  0.33993139043E+03  0.12497720360E+03 0.  0.
          5    1    4    4  502    0  0.31186169321E+02  0.31378423990E+02 -0.25591373507E+03  0.25975202107E+03  0.47000000000E+01 0.  1.
         -5    1    4    4    0  502  0.23987873436E+02 -0.37103747567E+02 -0.19997335371E+02  0.48724630090E+02  0.47000000000E+01 0.  1.
          5    1    5    5  503    0 -0.25852501832E+02 -0.14621354079E+02 -0.30101819039E+03  0.30251640748E+03  0.47000000000E+01 0. -1.
         -5    1    5    5    0  503 -0.29321540925E+02  0.20346677656E+02 -0.10200534064E+02  0.37414982949E+02  0.47000000000E+01 0. -1.
<mgrwt>
<rscale>  0 0.27515740E+03</rscale>
<asrwt>0</asrwt>
<pdfrwt beam="1">  1        1 0.95041368E-01 0.27515740E+03</pdfrwt>
<pdfrwt beam="2">  1       -1 0.47137115E-02 0.27515740E+03</pdfrwt>
<totfact> 0.64690821E+03</totfact>
</mgrwt>
</event>
<event>
 9    1  0.2098759E-002  0.2739722E+03  0.7818608E-02  0.1099028E+00
         -2   -1    0    0    0  501 -0.00000000000E+00  0.00000000000E+00  0.85363974436E+03  0.85363974436E+03  0.00000000000E+00 0.  1.
          2   -1    0    0  501    0  0.00000000000E+00 -0.00000000000E+00 -0.21982562382E+02  0.21982562382E+02  0.00000000000E+00 0.  1.
         36    2    1    2    0    0  0.00000000000E+00 -0.71054273576E-14  0.83165718197E+03  0.87562230674E+03  0.27397218057E+03 0.  0.
         25    2    3    3    0    0 -0.29561525724E+02 -0.56680961086E+01  0.27191217502E+03  0.30105751891E+03  0.12567174563E+03 0.  0.
         25    2    3    3    0    0  0.29561525724E+02  0.56680961086E+01  0.55974500695E+03  0.57456478783E+03  0.12611190067E+03 0.  0.
          5    1    4    4  502    0  0.21834152532E+02 -0.53639127899E+02  0.10787923431E+03  0.12253124276E+03  0.47000000000E+01 0.  1.
         -5    1    4    4    0  502 -0.51395678256E+02  0.47971031790E+02  0.16403294071E+03  0.17852627614E+03  0.47000000000E+01 0.  1.
          5    1    5    5  503    0 -0.19782188118E+02  0.42415244466E+02  0.97869353993E+02  0.10858585719E+03  0.47000000000E+01 0. -1.
         -5    1    5    5    0  503  0.49343713842E+02 -0.36747148357E+02  0.46187565296E+03  0.46597893065E+03  0.47000000000E+01 0. -1.
<mgrwt>
<rscale>  0 0.27397218E+03</rscale>
<asrwt>0</asrwt>
<pdfrwt beam="1">  1        2 0.33819333E-02 0.27397218E+03</pdfrwt>
<pdfrwt beam="2">  1       -2 0.13132917E+00 0.27397218E+03</pdfrwt>
<totfact> 0.11826177E+03</totfact>
</mgrwt>
</event>
<event>
 9    1  0.2098759E-002  0.2752587E+03  0.7818608E-02  0.1098307E+00
          2   -1    0    0  501    0  0.00000000000E+00  0.00000000000E+00  0.25682718224E+04  0.25682718224E+04  0.00000000000E+00 0.  1.
         -2   -1    0    0    0  501 -0.00000000000E+00 -0.00000000000E+00 -0.73753242244E+01  0.73753242244E+01  0.00000000000E+00 0.  1.
         36    2    1    2    0    0 -0.14210854715E-13 -0.71054273576E-14  0.25608964982E+04  0.25756471467E+04  0.27525869568E+03 0.  0.
         25    2    3    3    0    0 -0.44058500042E+02 -0.27798167424E+02  0.96450614862E+03  0.97356762440E+03  0.12185203738E+03 0.  0.
         25    2    3    3    0    0  0.44058500042E+02  0.27798167424E+02  0.15963903496E+04  0.16020795223E+04  0.12442973054E+03 0.  0.
          5    1    4    4  502    0 -0.58411417104E+02 -0.22967421906E+01  0.19834079152E+03  0.20682922486E+03  0.47000000000E+01 0. -1.
         -5    1    4    4    0  502  0.14352917063E+02 -0.25501425234E+02  0.76616535709E+03  0.76673839954E+03  0.47000000000E+01 0. -1.
          5    1    5    5  503    0 -0.23576541616E+02  0.26026899200E+02  0.11519011557E+04  0.11524459273E+04  0.47000000000E+01 0.  1.
         -5    1    5    5    0  503  0.67635041658E+02  0.17712682240E+01  0.44448919386E+03  0.44963359496E+03  0.47000000000E+01 0.  1.
<mgrwt>
<rscale>  0 0.27525870E+03</rscale>
<asrwt>0</asrwt>
<pdfrwt beam="1">  1        2 0.39511803E+00 0.27525870E+03</pdfrwt>
<pdfrwt beam="2">  1       -2 0.11346673E-02 0.27525870E+03</pdfrwt>
<totfact> 0.65246101E+03</totfact>
</mgrwt>
</event>
<event>
 9    1  0.2098759E-002  0.2751563E+03  0.7818608E-02  0.1098364E+00
         -1   -1    0    0    0  501 -0.00000000000E+00  0.00000000000E+00  0.23763938447E+03  0.23763938447E+03  0.00000000000E+00 0.  1.
          1   -1    0    0  501    0  0.00000000000E+00 -0.00000000000E+00 -0.79649055923E+02  0.79649055923E+02  0.00000000000E+00 0.  1.
         36    2    1    2    0    0 -0.71054273576E-14  0.71054273576E-14  0.15799032854E+03  0.31728844039E+03  0.27515633827E+03 0.  0.
         25    2    3    3    0    0 -0.33008189196E+02 -0.17837126399E+02  0.10748096357E+03  0.17768093280E+03  0.13642086613E+03 0.  0.
         25    2    3    3    0    0  0.33008189196E+02  0.17837126399E+02  0.50509364969E+02  0.13960750759E+03  0.12462486347E+03 0.  0.
          5    1    4    4  502    0  0.38346187857E+02  0.19410890406E+02  0.82717462949E+02  0.93335317358E+02  0.47000000000E+01 0.  1.
         -5    1    4    4    0  502 -0.71354377053E+02 -0.37248016805E+02  0.24763500625E+02  0.84345615438E+02  0.47000000000E+01 0.  1.
          5    1    5    5  503    0  0.42338744659E+02 -0.12926551115E+02  0.82669066951E+02  0.93893182147E+02  0.47000000000E+01 0.  1.
         -5    1    5    5    0  503 -0.93305554639E+01  0.30763677514E+02 -0.32159701982E+02  0.45714325446E+02  0.47000000000E+01 0.  1.
<mgrwt>
<rscale>  0 0.27515634E+03</rscale>
<asrwt>0</asrwt>
<pdfrwt beam="1">  1        1 0.12253701E-01 0.27515634E+03</pdfrwt>
<pdfrwt beam="2">  1       -1 0.36559905E-01 0.27515634E+03</pdfrwt>
<totfact> 0.35168779E+03</totfact>
</mgrwt>
</event>
<event>
 9    1  0.2098759E-002  0.2744470E+03  0.7818608E-02  0.1098761E+00
          2   -1    0    0  501    0  0.00000000000E+00  0.00000000000E+00  0.25419012003E+03  0.25419012003E+03  0.00000000000E+00 0.  1.
         -2   -1    0    0    0  501 -0.00000000000E+00 -0.00000000000E+00 -0.74079545564E+02  0.74079545564E+02  0.00000000000E+00 0.  1.
         36    2    1    2    0    0  0.00000000000E+00  0.00000000000E+00  0.18011057447E+03  0.32826966560E+03  0.27444699728E+03 0.  0.
         25    2    3    3    0    0 -0.43066890585E+01 -0.49310367316E+02  0.66036029625E+02  0.15116842684E+03  0.12665337015E+03 0.  0.
         25    2    3    3    0    0  0.43066890585E+01  0.49310367316E+02  0.11407454484E+03  0.17710123876E+03  0.12610228821E+03 0.  0.
          5    1    4    4  502    0 -0.38171591417E+02 -0.15188711993E+02 -0.24850623564E+02  0.48243246728E+02  0.47000000000E+01 0. -1.
         -5    1    4    4    0  502  0.33864902359E+02 -0.34121655323E+02  0.90886653189E+02  0.10292518011E+03  0.47000000000E+01 0. -1.
          5    1    5    5  503    0  0.23364164403E+02 -0.20006057119E+02  0.98630584459E+02  0.10342247672E+03  0.47000000000E+01 0.  1.
         -5    1    5    5    0  503 -0.19057475344E+02  0.69316424435E+02  0.15443960386E+02  0.73678762038E+02  0.47000000000E+01 0.  1.
<mgrwt>
<rscale>  0 0.27444700E+03</rscale>
<asrwt>0</asrwt>
<pdfrwt beam="1">  1        2 0.39106172E-01 0.27444700E+03</pdfrwt>
<pdfrwt beam="2">  1       -2 0.11396853E-01 0.27444700E+03</pdfrwt>
<totfact> 0.69860938E+03</totfact>
</mgrwt>
</event>
<event>
 9    1  0.2098759E-002  0.2744986E+03  0.7818608E-02  0.1098732E+00
          1   -1    0    0  501    0  0.00000000000E+00  0.00000000000E+00  0.10157035070E+03  0.10157035070E+03  0.00000000000E+00 0.  1.
         -1   -1    0    0    0  501 -0.00000000000E+00 -0.00000000000E+00 -0.18546129479E+03  0.18546129479E+03  0.00000000000E+00 0.  1.
         36    2    1    2    0    0  0.00000000000E+00 -0.71054273576E-14 -0.83890944082E+02  0.28703164549E+03  0.27449858837E+03 0.  0.
         25    2    3    3    0    0 -0.27309985409E+02 -0.47559417394E+02 -0.30557148429E+02  0.14096130668E+03  0.12620862560E+03 0.  0.
         25    2    3    3    0    0  0.27309985409E+02  0.47559417394E+02 -0.53333795653E+02  0.14607033881E+03  0.12443599413E+03 0.  0.
          5    1    4    4  502    0 -0.28204621074E+02 -0.57319862886E+02  0.36029388871E+02  0.73493361562E+02  0.47000000000E+01 0. -1.
         -5    1    4    4    0  502  0.89463566481E+00  0.97604454930E+01 -0.66586537301E+02  0.67467945121E+02  0.47000000000E+01 0. -1.
          5    1    5    5  503    0 -0.86303078646E+01 -0.40013697461E+02 -0.16727246947E+02  0.44468741705E+02  0.47000000000E+01 0.  1.
         -5    1    5    5    0  503  0.35940293273E+02  0.87573114855E+02 -0.36606548705E+02  0.10160159710E+03  0.47000000000E+01 0.  1.
<mgrwt>
<rscale>  0 0.27449859E+03</rscale>
<asrwt>0</asrwt>
<pdfrwt beam="1">  1        1 0.15626208E-01 0.27449859E+03</pdfrwt>
<pdfrwt beam="2">  1       -1 0.28532507E-01 0.27449859E+03</pdfrwt>
<totfact> 0.39077608E+03</totfact>
</mgrwt>
</event>
<event>
 9    1  0.2098759E-002  0.2745349E+03  0.7818608E-02  0.1098712E+00
          1   -1    0    0  501    0  0.00000000000E+00  0.00000000000E+00  0.53919250564E+03  0.53919250564E+03  0.00000000000E+00 0.  1.
         -1   -1    0    0    0  501 -0.00000000000E+00 -0.00000000000E+00 -0.34945500986E+02  0.34945500986E+02  0.00000000000E+00 0.  1.
         36    2    1    2    0    0 -0.35527136788E-14 -0.71054273576E-14  0.50424700466E+03  0.57413800663E+03  0.27453489569E+03 0.  0.
         25    2    3    3    0    0  0.20183481540E+02 -0.47955009277E+02  0.29805100064E+03  0.32725805635E+03  0.12472522046E+03 0.  0.
         25    2    3    3    0    0 -0.20183481540E+02  0.47955009277E+02  0.20619600401E+03  0.24687995028E+03  0.12540279877E+03 0.  0.
          5    1    4    4  502    0 -0.22289556709E+02  0.11244808244E+02  0.21574530536E+03  0.21723580929E+03  0.47000000000E+01 0. -1.
         -5    1    4    4    0  502  0.42473038249E+02 -0.59199817521E+02  0.82305695282E+02  0.11002224706E+03  0.47000000000E+01 0. -1.
          5    1    5    5  503    0 -0.31924577651E+02 -0.28618813755E+02  0.25218333726E+02  0.49962681221E+02  0.47000000000E+01 0.  1.
         -5    1    5    5    0  503  0.11741096111E+02  0.76573823032E+02  0.18097767029E+03  0.19691726906E+03  0.47000000000E+01 0.  1.
<mgrwt>
<rscale>  0 0.27453490E+03</rscale>
<asrwt>0</asrwt>
<pdfrwt beam="1">  1        1 0.82952687E-01 0.27453490E+03</pdfrwt>
<pdfrwt beam="2">  1       -1 0.53762313E-02 0.27453490E+03</pdfrwt>
<totfact> 0.64039311E+03</totfact>
</mgrwt>
</event>
<event>
 9    1  0.2098759E-002  0.2750462E+03  0.7818608E-02  0.1098426E+00
          2   -1    0    0  501    0  0.00000000000E+00  0.00000000000E+00  0.10440012910E+04  0.10440012910E+04  0.00000000000E+00 0.  1.
         -2   -1    0    0    0  501 -0.00000000000E+00 -0.00000000000E+00 -0.18115492053E+02  0.18115492053E+02  0.00000000000E+00 0.  1.
         36    2    1    2    0    0  0.17763568394E-14  0.14210854715E-13  0.10258857989E+04  0.10621167830E+04  0.27504615679E+03 0.  0.
         25    2    3    3    0    0  0.11020766733E+02  0.40770963045E+02  0.49635210298E+03  0.51627321472E+03  0.13560565394E+03 0.  0.
         25    2    3    3    0    0 -0.11020766733E+02 -0.40770963045E+02  0.52953369596E+03  0.54584356833E+03  0.12552106276E+03 0.  0.
          5    1    4    4  502    0 -0.27420312824E+02  0.74985816407E+02  0.38891912047E+03  0.39705782763E+03  0.47000000000E+01 0. -1.
         -5    1    4    4    0  502  0.38441079557E+02 -0.34214853363E+02  0.10743298251E+03  0.11921538709E+03  0.47000000000E+01 0. -1.
          5    1    5    5  503    0 -0.24225347409E+02  0.16751420673E+02  0.42229532102E+03  0.42334726373E+03  0.47000000000E+01 0. -1.
         -5    1    5    5    0  503  0.13204580676E+02 -0.57522383717E+02  0.10723837494E+03  0.12249630459E+03  0.47000000000E+01 0. -1.
<mgrwt>
<rscale>  0 0.27504616E+03</rscale>
<asrwt>0</asrwt>
<pdfrwt beam="1">  1        2 0.16061554E+00 0.27504616E+03</pdfrwt>
<pdfrwt beam="2">  1       -2 0.27869996E-02 0.27504616E+03</pdfrwt>
<totfact> 0.11641613E+04</totfact>
</mgrwt>
</event>
<event>
 9    1  0.2098759E-002  0.2664137E+03  0.7818608E-02  0.1103350E+00
          2   -1    0    0  501    0  0.00000000000E+00  0.00000000000E+00  0.45875724734E+03  0.45875724734E+03  0.00000000000E+00 0.  1.
         -2   -1    0    0    0  501 -0.00000000000E+00 -0.00000000000E+00 -0.38678543059E+02  0.38678543059E+02  0.00000000000E+00 0.  1.
         36    2    1    2    0    0  0.71054273576E-14 -0.71054273576E-14  0.42007870429E+03  0.49743579040E+03  0.26641367792E+03 0.  0.
         25    2    3    3    0    0 -0.24302627727E+02  0.37949663754E+02  0.23760615834E+03  0.27181779629E+03  0.12408639412E+03 0.  0.
         25    2    3    3    0    0  0.24302627727E+02 -0.37949663754E+02  0.18247254595E+03  0.22561799412E+03  0.12480566714E+03 0.  0.
          5    1    4    4  502    0 -0.11649116691E+02 -0.42825553274E+02  0.49450654308E+02  0.66612214679E+02  0.47000000000E+01 0.  1.
         -5    1    4    4    0  502 -0.12653511036E+02  0.80775217028E+02  0.18815550403E+03  0.20520558161E+03  0.47000000000E+01 0.  1.
          5    1    5    5  503    0  0.31094624530E+02 -0.77583252466E+02  0.81514355009E+02  0.11684484075E+03  0.47000000000E+01 0.  1.
         -5    1    5    5    0  503 -0.67919968028E+01  0.39633588712E+02  0.10095819094E+03  0.10877315336E+03  0.47000000000E+01 0.  1.
<mgrwt>
<rscale>  0 0.26641368E+03</rscale>
<asrwt>0</asrwt>
<pdfrwt beam="1">  1        2 0.70578034E-01 0.26641368E+03</pdfrwt>
<pdfrwt beam="2">  1       -2 0.59505454E-02 0.26641368E+03</pdfrwt>
<totfact> 0.10198358E+04</totfact>
</mgrwt>
</event>
<event>
 9    1  0.2098759E-002  0.2744616E+03  0.7818608E-02  0.1098753E+00
          1   -1    0    0  501    0  0.00000000000E+00  0.00000000000E+00  0.44989576064E+03  0.44989576064E+03  0.00000000000E+00 0.  1.
         -1   -1    0    0    0  501 -0.00000000000E+00 -0.00000000000E+00 -0.41859235090E+02  0.41859235090E+02  0.00000000000E+00 0.  1.
         36    2    1    2    0    0 -0.71054273576E-14 -0.71054273576E-14  0.40803652555E+03  0.49175499573E+03  0.27446159958E+03 0.  0.
         25    2    3    3    0    0 -0.44810366244E+02 -0.39980419730E+02  0.18364658938E+03  0.22908056003E+03  0.12306677174E+03 0.  0.
         25    2    3    3    0    0  0.44810366244E+02  0.39980419730E+02  0.22438993617E+03  0.26267443570E+03  0.12264017626E+03 0.  0.
          5    1    4    4  502    0 -0.51083168964E+02 -0.12644809986E+02  0.19224406188E+03  0.19937214123E+03  0.47000000000E+01 0. -1.
         -5    1    4    4    0  502  0.62728027206E+01 -0.27335609744E+02 -0.85974724994E+01  0.29708418797E+02  0.47000000000E+01 0. -1.
          5    1    5    5  503    0 -0.20444271753E+02 -0.32448308318E+02  0.55841980409E+02  0.67906389510E+02  0.47000000000E+01 0. -1.
         -5    1    5    5    0  503  0.65254637997E+02  0.72428728048E+02  0.16854795576E+03  0.19476804619E+03  0.47000000000E+01 0. -1.
<mgrwt>
<rscale>  0 0.27446160E+03</rscale>
<asrwt>0</asrwt>
<pdfrwt beam="1">  1        1 0.69214729E-01 0.27446160E+03</pdfrwt>
<pdfrwt beam="2">  1       -1 0.64398827E-02 0.27446160E+03</pdfrwt>
<totfact> 0.62015674E+03</totfact>
</mgrwt>
</event>
<event>
 9    1  0.2098759E-002  0.2698190E+03  0.7818608E-02  0.1101383E+00
         -1   -1    0    0    0  501 -0.00000000000E+00  0.00000000000E+00  0.22671904119E+02  0.22671904119E+02  0.00000000000E+00 0. -1.
          1   -1    0    0  501    0  0.00000000000E+00 -0.00000000000E+00 -0.80278089177E+03  0.80278089177E+03  0.00000000000E+00 0. -1.
         36    2    1    2    0    0  0.00000000000E+00  0.00000000000E+00 -0.78010898765E+03  0.82545279589E+03  0.26981898678E+03 0.  0.
         25    2    3    3    0    0  0.16098555547E+02  0.37417902135E+02 -0.45270952694E+03  0.47297109640E+03  0.13075350611E+03 0.  0.
         25    2    3    3    0    0 -0.16098555547E+02 -0.37417902135E+02 -0.32739946071E+03  0.35248169948E+03  0.12407126463E+03 0.  0.
          5    1    4    4  502    0  0.31028721245E+02 -0.11997815877E+02 -0.39073391557E+03  0.39217574110E+03  0.47000000000E+01 0.  1.
         -5    1    4    4    0  502 -0.14930165697E+02  0.49415718012E+02 -0.61975611370E+02  0.80795355306E+02  0.47000000000E+01 0.  1.
          5    1    5    5  503    0  0.36996969932E+01  0.77905602922E+01 -0.29053507208E+03  0.29070104695E+03  0.47000000000E+01 0. -1.
         -5    1    5    5    0  503 -0.19798252541E+02 -0.45208462427E+02 -0.36864388625E+02  0.61780652533E+02  0.47000000000E+01 0. -1.
<mgrwt>
<rscale>  0 0.26981899E+03</rscale>
<asrwt>0</asrwt>
<pdfrwt beam="1">  1        1 0.12350474E+00 0.26981899E+03</pdfrwt>
<pdfrwt beam="2">  1       -1 0.34879857E-02 0.26981899E+03</pdfrwt>
<totfact> 0.68941953E+03</totfact>
</mgrwt>
</event>
<event>
 9    1  0.2098759E-002  0.2693134E+03  0.7818608E-02  0.1101673E+00
         -1   -1    0    0    0  501 -0.00000000000E+00  0.00000000000E+00  0.27207006395E+02  0.27207006395E+02  0.00000000000E+00 0.  1.
          1   -1    0    0  501    0  0.00000000000E+00 -0.00000000000E+00 -0.66646142331E+03  0.66646142331E+03  0.00000000000E+00 0.  1.
         36    2    1    2    0    0  0.00000000000E+00  0.71054273576E-14 -0.63925441691E+03  0.69366842970E+03  0.26931335062E+03 0.  0.
         25    2    3    3    0    0  0.46141851041E+02  0.16546870963E+02 -0.36475995781E+03  0.38837358794E+03  0.12402156113E+03 0.  0.
         25    2    3    3    0    0 -0.46141851041E+02 -0.16546870963E+02 -0.27449445910E+03  0.30529484177E+03  0.12431758917E+03 0.  0.
          5    1    4    4  502    0 -0.18264284835E+01 -0.26126121275E+02 -0.28330556542E+03  0.28455235626E+03  0.47000000000E+01 0.  1.
         -5    1    4    4    0  502  0.47968279524E+02  0.42672992238E+02 -0.81454392396E+02  0.10382123168E+03  0.47000000000E+01 0.  1.
          5    1    5    5  503    0 -0.66426258712E+02  0.18726085576E+02 -0.24563327636E+03  0.25518799067E+03  0.47000000000E+01 0. -1.
         -5    1    5    5    0  503  0.20284407671E+02 -0.35272956539E+02 -0.28861182738E+02  0.50106851094E+02  0.47000000000E+01 0. -1.
<mgrwt>
<rscale>  0 0.26931335E+03</rscale>
<asrwt>0</asrwt>
<pdfrwt beam="1">  1        1 0.10253252E+00 0.26931335E+03</pdfrwt>
<pdfrwt beam="2">  1       -1 0.41856936E-02 0.26931335E+03</pdfrwt>
<totfact> 0.69320443E+03</totfact>
</mgrwt>
</event>
<event>
 9    1  0.2098759E-002  0.2752273E+03  0.7818608E-02  0.1098325E+00
         -1   -1    0    0    0  501 -0.00000000000E+00  0.00000000000E+00  0.96017045406E+02  0.96017045406E+02  0.00000000000E+00 0.  1.
          1   -1    0    0  501    0  0.00000000000E+00 -0.00000000000E+00 -0.19723072362E+03  0.19723072362E+03  0.00000000000E+00 0.  1.
         36    2    1    2    0    0  0.35527136788E-14  0.00000000000E+00 -0.10121367821E+03  0.29324776902E+03  0.27522726133E+03 0.  0.
         25    2    3    3    0    0 -0.20564319766E+02  0.44636728868E+01 -0.11075689897E+03  0.16667385915E+03  0.12276102407E+03 0.  0.
         25    2    3    3    0    0  0.20564319766E+02 -0.44636728868E+01  0.95432207613E+01  0.12657390988E+03  0.12444704085E+03 0.  0.
          5    1    4    4  502    0 -0.42036530552E+02 -0.40821424027E+02 -0.18584361263E+02  0.61651658891E+02  0.47000000000E+01 0.  1.
         -5    1    4    4    0  502  0.21472210786E+02  0.45285096914E+02 -0.92172537710E+02  0.10502220026E+03  0.47000000000E+01 0.  1.
          5    1    5    5  503    0 -0.48435096358E+00 -0.47602587234E+02 -0.36286675006E+02  0.60042099315E+02  0.47000000000E+01 0. -1.
         -5    1    5    5    0  503  0.21048670730E+02  0.43138914347E+02  0.45829895767E+02  0.66531810561E+02  0.47000000000E+01 0. -1.
<mgrwt>
<rscale>  0 0.27522726E+03</rscale>
<asrwt>0</asrwt>
<pdfrwt beam="1">  1        1 0.30343188E-01 0.27522726E+03</pdfrwt>
<pdfrwt beam="2">  1       -1 0.14771853E-01 0.27522726E+03</pdfrwt>
<totfact> 0.48841512E+03</totfact>
</mgrwt>
</event>
<event>
 9    1  0.2098759E-002  0.2744476E+03  0.7818608E-02  0.1098761E+00
         -2   -1    0    0    0  501 -0.00000000000E+00  0.00000000000E+00  0.18891837969E+02  0.18891837969E+02  0.00000000000E+00 0.  1.
          2   -1    0    0  501    0  0.00000000000E+00 -0.00000000000E+00 -0.99674635164E+03  0.99674635164E+03  0.00000000000E+00 0.  1.
         36    2    1    2    0    0 -0.71054273576E-14  0.35527136788E-14 -0.97785451368E+03  0.10156381896E+04  0.27444759479E+03 0.  0.
         25    2    3    3    0    0  0.43851330595E+02  0.30807589906E+02 -0.43958963712E+03  0.46048858561E+03  0.12624833315E+03 0.  0.
         25    2    3    3    0    0 -0.43851330595E+02 -0.30807589906E+02 -0.53826487655E+03  0.55514960400E+03  0.12485975612E+03 0.  0.
          5    1    4    4  502    0  0.35705321938E+02 -0.49203453529E+00 -0.23252160126E+02  0.42870328471E+02  0.47000000000E+01 0. -1.
         -5    1    4    4    0  502  0.81460086562E+01  0.31299624441E+02 -0.41633747699E+03  0.41761825714E+03  0.47000000000E+01 0. -1.
          5    1    5    5  503    0 -0.32397150286E+02  0.43677709846E+02 -0.15028546355E+03  0.15989098861E+03  0.47000000000E+01 0. -1.
         -5    1    5    5    0  503 -0.11454180309E+02 -0.74485299752E+02 -0.38797941300E+03  0.39525861539E+03  0.47000000000E+01 0. -1.
<mgrwt>
<rscale>  0 0.27444759E+03</rscale>
<asrwt>0</asrwt>
<pdfrwt beam="1">  1        2 0.15334557E+00 0.27444759E+03</pdfrwt>
<pdfrwt beam="2">  1       -2 0.29064370E-02 0.27444759E+03</pdfrwt>
<totfact> 0.11683948E+04</totfact>
</mgrwt>
</event>
<event>
 9    1  0.2098759E-002  0.2737520E+03  0.7818608E-02  0.1099151E+00
          1   -1    0    0  501    0  0.00000000000E+00  0.00000000000E+00  0.60817289709E+03  0.60817289709E+03  0.00000000000E+00 0. -1.
         -1   -1    0    0    0  501 -0.00000000000E+00 -0.00000000000E+00 -0.30805447692E+02  0.30805447692E+02  0.00000000000E+00 0. -1.
         36    2    1    2    0    0  0.00000000000E+00  0.35527136788E-14  0.57736744940E+03  0.63897834478E+03  0.27375199264E+03 0.  0.
         25    2    3    3    0    0 -0.31404655798E+02 -0.49154493560E+01  0.19591624866E+03  0.23615632584E+03  0.12796960459E+03 0.  0.
         25    2    3    3    0    0  0.31404655798E+02  0.49154493560E+01  0.38145120074E+03  0.40282201894E+03  0.12549958704E+03 0.  0.
          5    1    4    4  502    0 -0.72002003540E+02 -0.33933698940E+02  0.13958546951E+03  0.16075440192E+03  0.47000000000E+01 0.  1.
         -5    1    4    4    0  502  0.40597347742E+02  0.29018249584E+02  0.56330779147E+02  0.75401923926E+02  0.47000000000E+01 0.  1.
          5    1    5    5  503    0  0.18526046332E+02  0.57316270060E+02  0.10524223171E+03  0.12135232401E+03  0.47000000000E+01 0. -1.
         -5    1    5    5    0  503  0.12878609466E+02 -0.52400820704E+02  0.27620896903E+03  0.28146969493E+03  0.47000000000E+01 0. -1.
<mgrwt>
<rscale>  0 0.27375199E+03</rscale>
<asrwt>0</asrwt>
<pdfrwt beam="1">  1        1 0.93565053E-01 0.27375199E+03</pdfrwt>
<pdfrwt beam="2">  1       -1 0.47393001E-02 0.27375199E+03</pdfrwt>
<totfact> 0.65578687E+03</totfact>
</mgrwt>
</event>
<event>
 9    1  0.2098759E-002  0.2717160E+03  0.7818608E-02  0.1100302E+00
         -2   -1    0    0    0  501 -0.00000000000E+00  0.00000000000E+00  0.11633161502E+03  0.11633161502E+03  0.00000000000E+00 0. -1.
          2   -1    0    0  501    0  0.00000000000E+00 -0.00000000000E+00 -0.15866188283E+03  0.15866188283E+03  0.00000000000E+00 0. -1.
         36    2    1    2    0    0 -0.35527136788E-14 -0.71054273576E-14 -0.42330267807E+02  0.27499349785E+03  0.27171597723E+03 0.  0.
         25    2    3    3    0    0 -0.14720124211E+02 -0.22020934776E+02 -0.67487262043E+02  0.14622942121E+03  0.12699176928E+03 0.  0.
         25    2    3    3    0    0  0.14720124211E+02  0.22020934776E+02  0.25156994236E+02  0.12876407663E+03  0.12347351719E+03 0.  0.
          5    1    4    4  502    0 -0.17304897371E+02  0.33586352566E+02 -0.80339605995E+02  0.88904695282E+02  0.47000000000E+01 0. -1.
         -5    1    4    4    0  502  0.25847731601E+01 -0.55607287342E+02  0.12852343952E+02  0.57324725930E+02  0.47000000000E+01 0. -1.
          5    1    5    5  503    0  0.19824599072E+02 -0.29548631320E+02  0.57292358897E+02  0.67606513955E+02  0.47000000000E+01 0.  1.
         -5    1    5    5    0  503 -0.51044748617E+01  0.51569566096E+02 -0.32135364661E+02  0.61157562679E+02  0.47000000000E+01 0.  1.
<mgrwt>
<rscale>  0 0.27171598E+03</rscale>
<asrwt>0</asrwt>
<pdfrwt beam="1">  1        2 0.24409520E-01 0.27171598E+03</pdfrwt>
<pdfrwt beam="2">  1       -2 0.17897172E-01 0.27171598E+03</pdfrwt>
<totfact> 0.55754273E+03</totfact>
</mgrwt>
</event>
<event>
 9    1  0.2098759E-002  0.2774009E+03  0.7818608E-02  0.1097117E+00
         -1   -1    0    0    0  501 -0.00000000000E+00  0.00000000000E+00  0.10369476054E+03  0.10369476054E+03  0.00000000000E+00 0. -1.
          1   -1    0    0  501    0  0.00000000000E+00 -0.00000000000E+00 -0.18552349607E+03  0.18552349607E+03  0.00000000000E+00 0. -1.
         36    2    1    2    0    0  0.00000000000E+00  0.35527136788E-14 -0.81828735530E+02  0.28921825660E+03  0.27740089761E+03 0.  0.
         25    2    3    3    0    0 -0.50890199443E+02 -0.18664362960E+02 -0.10524231020E+02  0.13489748674E+03  0.12307884321E+03 0.  0.
         25    2    3    3    0    0  0.50890199443E+02  0.18664362960E+02 -0.71304504509E+02  0.15432076987E+03  0.12566780338E+03 0.  0.
          5    1    4    4  502    0 -0.27339928206E+02 -0.57913844903E+02 -0.44131675125E+02  0.77917776246E+02  0.47000000000E+01 0. -1.
         -5    1    4    4    0  502 -0.23550271237E+02  0.39249481943E+02  0.33607444105E+02  0.56979710489E+02  0.47000000000E+01 0. -1.
          5    1    5    5  503    0 -0.21030124087E+02 -0.31524661329E+02 -0.51800798578E+02  0.64354355908E+02  0.47000000000E+01 0. -1.
         -5    1    5    5    0  503  0.71920323530E+02  0.50189024289E+02 -0.19503705931E+02  0.89966413960E+02  0.47000000000E+01 0. -1.
<mgrwt>
<rscale>  0 0.27740090E+03</rscale>
<asrwt>0</asrwt>
<pdfrwt beam="1">  1        1 0.28542076E-01 0.27740090E+03</pdfrwt>
<pdfrwt beam="2">  1       -1 0.15953040E-01 0.27740090E+03</pdfrwt>
<totfact> 0.46703577E+03</totfact>
</mgrwt>
</event>
<event>
 9    1  0.2098759E-002  0.2744759E+03  0.7818608E-02  0.1098745E+00
         -1   -1    0    0    0  501 -0.00000000000E+00  0.00000000000E+00  0.16993220855E+02  0.16993220855E+02  0.00000000000E+00 0.  1.
          1   -1    0    0  501    0  0.00000000000E+00 -0.00000000000E+00 -0.11083390441E+04  0.11083390441E+04  0.00000000000E+00 0.  1.
         36    2    1    2    0    0 -0.71054273576E-14 -0.88817841970E-15 -0.10913458232E+04  0.11253322650E+04  0.27447586531E+03 0.  0.
         25    2    3    3    0    0  0.50119691486E+02 -0.67394210839E+01 -0.62820636635E+03  0.64232778319E+03  0.12403362071E+03 0.  0.
         25    2    3    3    0    0 -0.50119691486E+02  0.67394210839E+01 -0.46313945690E+03  0.48300448177E+03  0.12742750723E+03 0.  0.
          5    1    4    4  502    0 -0.41007971357E+02 -0.99433419941E+01 -0.18402005544E+03  0.18885442693E+03  0.47000000000E+01 0. -1.
         -5    1    4    4    0  502  0.91127662843E+02  0.32039209102E+01 -0.44418631090E+03  0.45347335626E+03  0.47000000000E+01 0. -1.
          5    1    5    5  503    0  0.39984609683E+02  0.20278510818E+01 -0.82940232330E+02  0.92217424224E+02  0.47000000000E+01 0.  1.
         -5    1    5    5    0  503 -0.90104301169E+02  0.47115700021E+01 -0.38019922457E+03  0.39078705754E+03  0.47000000000E+01 0.  1.
<mgrwt>
<rscale>  0 0.27447587E+03</rscale>
<asrwt>0</asrwt>
<pdfrwt beam="1">  1        1 0.17051375E+00 0.27447587E+03</pdfrwt>
<pdfrwt beam="2">  1       -1 0.26143408E-02 0.27447587E+03</pdfrwt>
<totfact> 0.61492399E+03</totfact>
</mgrwt>
</event>
<event>
 9    1  0.2098759E-002  0.2750881E+03  0.7818608E-02  0.1098402E+00
          2   -1    0    0  501    0  0.00000000000E+00  0.00000000000E+00  0.36006859643E+03  0.36006859643E+03  0.00000000000E+00 0. -1.
         -2   -1    0    0    0  501 -0.00000000000E+00 -0.00000000000E+00 -0.52541021914E+02  0.52541021914E+02  0.00000000000E+00 0. -1.
         36    2    1    2    0    0  0.35527136788E-14 -0.71054273576E-14  0.30752757452E+03  0.41260961835E+03  0.27508814599E+03 0.  0.
         25    2    3    3    0    0  0.93255783498E+01  0.37371753212E+02  0.12094187471E+03  0.17637612455E+03  0.12246626435E+03 0.  0.
         25    2    3    3    0    0 -0.93255783498E+01 -0.37371753212E+02  0.18658569981E+03  0.23623349379E+03  0.13967256663E+03 0.  0.
          5    1    4    4  502    0 -0.25528696721E+02  0.57175161424E+02  0.12065145339E+03  0.13601314880E+03  0.47000000000E+01 0. -1.
         -5    1    4    4    0  502  0.34854275071E+02 -0.19803408212E+02  0.29042132404E+00  0.40362975758E+02  0.47000000000E+01 0. -1.
          5    1    5    5  503    0  0.39933207319E+02  0.22281958429E+02  0.15673039947E+02  0.48568311679E+02  0.47000000000E+01 0.  1.
         -5    1    5    5    0  503 -0.49258785668E+02 -0.59653711641E+02  0.17091265986E+03  0.18766518211E+03  0.47000000000E+01 0.  1.
<mgrwt>
<rscale>  0 0.27508815E+03</rscale>
<asrwt>0</asrwt>
<pdfrwt beam="1">  1        2 0.55395167E-01 0.27508815E+03</pdfrwt>
<pdfrwt beam="2">  1       -2 0.80832344E-02 0.27508815E+03</pdfrwt>
<totfact> 0.82760435E+03</totfact>
</mgrwt>
</event>
<event>
 9    1  0.2098759E-002  0.2744720E+03  0.7818608E-02  0.1098747E+00
         -1   -1    0    0    0  501 -0.00000000000E+00  0.00000000000E+00  0.16735125058E+03  0.16735125058E+03  0.00000000000E+00 0.  1.
          1   -1    0    0  501    0  0.00000000000E+00 -0.00000000000E+00 -0.11254003542E+03  0.11254003542E+03  0.00000000000E+00 0.  1.
         36    2    1    2    0    0  0.71054273576E-14 -0.35527136788E-14  0.54811215155E+02  0.27989128600E+03  0.27447197065E+03 0.  0.
         25    2    3    3    0    0  0.37400714224E+02  0.11199044939E+02  0.64268808273E+02  0.14907080223E+03  0.12871438276E+03 0.  0.
         25    2    3    3    0    0 -0.37400714224E+02 -0.11199044939E+02 -0.94575931175E+01  0.13082048376E+03  0.12450028463E+03 0.  0.
          5    1    4    4  502    0 -0.75096148496E+01  0.51411794701E+02 -0.10187650167E+02  0.53154916664E+02  0.47000000000E+01 0.  1.
         -5    1    4    4    0  502  0.44910329073E+02 -0.40212749762E+02  0.74456458440E+02  0.95915885568E+02  0.47000000000E+01 0.  1.
          5    1    5    5  503    0 -0.18389116786E+02 -0.10948482191E+01 -0.66766562239E+02  0.69420617557E+02  0.47000000000E+01 0.  1.
         -5    1    5    5    0  503 -0.19011597438E+02 -0.10104196720E+02  0.57308969121E+02  0.61399866207E+02  0.47000000000E+01 0.  1.
<mgrwt>
<rscale>  0 0.27447197E+03</rscale>
<asrwt>0</asrwt>
<pdfrwt beam="1">  1        1 0.17313852E-01 0.27447197E+03</pdfrwt>
<pdfrwt beam="2">  1       -1 0.25746346E-01 0.27447197E+03</pdfrwt>
<totfact> 0.40621787E+03</totfact>
</mgrwt>
</event>
<event>
 9    1  0.2098759E-002  0.2752788E+03  0.7818608E-02  0.1098296E+00
         -1   -1    0    0    0  501 -0.00000000000E+00  0.00000000000E+00  0.64992126469E+02  0.64992126469E+02  0.00000000000E+00 0.  1.
          1   -1    0    0  501    0  0.00000000000E+00 -0.00000000000E+00 -0.29149076386E+03  0.29149076386E+03  0.00000000000E+00 0.  1.
         36    2    1    2    0    0  0.00000000000E+00  0.00000000000E+00 -0.22649863739E+03  0.35648289033E+03  0.27527880114E+03 0.  0.
         25    2    3    3    0    0  0.11078490736E+02 -0.28200830435E+02 -0.19249062132E+03  0.23197805299E+03  0.12586960705E+03 0.  0.
         25    2    3    3    0    0 -0.11078490736E+02  0.28200830435E+02 -0.34008016072E+02  0.12450483734E+03  0.11587445607E+03 0.  0.
          5    1    4    4  502    0 -0.36735775727E+02  0.30425696918E+02 -0.43103078369E+02  0.64460884389E+02  0.47000000000E+01 0.  1.
         -5    1    4    4    0  502  0.47814266463E+02 -0.58626527353E+02 -0.14938754295E+03  0.16751716860E+03  0.47000000000E+01 0.  1.
          5    1    5    5  503    0  0.56989816629E+01 -0.35841834497E+02  0.17431054671E+02  0.40534518118E+02  0.47000000000E+01 0.  1.
         -5    1    5    5    0  503 -0.16777472399E+02  0.64042664932E+02 -0.51439070743E+02  0.83970319224E+02  0.47000000000E+01 0.  1.
<mgrwt>
<rscale>  0 0.27527880E+03</rscale>
<asrwt>0</asrwt>
<pdfrwt beam="1">  1        1 0.44844732E-01 0.27527880E+03</pdfrwt>
<pdfrwt beam="2">  1       -1 0.99987889E-02 0.27527880E+03</pdfrwt>
<totfact> 0.55041593E+03</totfact>
</mgrwt>
</event>
<event>
 9    1  0.2098759E-002  0.2769815E+03  0.7818608E-02  0.1097349E+00
          2   -1    0    0  501    0  0.00000000000E+00  0.00000000000E+00  0.10312386384E+04  0.10312386384E+04  0.00000000000E+00 0.  1.
         -2   -1    0    0    0  501 -0.00000000000E+00 -0.00000000000E+00 -0.18598693169E+02  0.18598693169E+02  0.00000000000E+00 0.  1.
         36    2    1    2    0    0 -0.35527136788E-14 -0.71054273576E-14  0.10126399452E+04  0.10498373315E+04  0.27698152298E+03 0.  0.
         25    2    3    3    0    0  0.28328827035E+02  0.32434895565E+02  0.52142897854E+03  0.53627469432E+03  0.11767677433E+03 0.  0.
         25    2    3    3    0    0 -0.28328827035E+02 -0.32434895565E+02  0.49121096664E+03  0.51356263720E+03  0.14354032076E+03 0.  0.
          5    1    4    4  502    0  0.46179260424E+02 -0.30731789747E+02  0.17468124066E+03  0.18333737435E+03  0.47000000000E+01 0. -1.
         -5    1    4    4    0  502 -0.17850433389E+02  0.63166685312E+02  0.34674773788E+03  0.35293731997E+03  0.47000000000E+01 0. -1.
          5    1    5    5  503    0  0.88333858855E+01  0.11760644090E+02  0.42621497273E+03  0.42649458899E+03  0.47000000000E+01 0. -1.
         -5    1    5    5    0  503 -0.37162212920E+02 -0.44195539655E+02  0.64995993908E+02  0.87068048207E+02  0.47000000000E+01 0. -1.
<mgrwt>
<rscale>  0 0.27698152E+03</rscale>
<asrwt>0</asrwt>
<pdfrwt beam="1">  1        2 0.15865205E+00 0.27698152E+03</pdfrwt>
<pdfrwt beam="2">  1       -2 0.28613382E-02 0.27698152E+03</pdfrwt>
<totfact> 0.11397583E+04</totfact>
</mgrwt>
</event>
<event>
 9    1  0.2098759E-002  0.2741533E+03  0.7818608E-02  0.1098926E+00
         -1   -1    0    0    0  501 -0.00000000000E+00  0.00000000000E+00  0.18816165672E+02  0.18816165672E+02  0.00000000000E+00 0. -1.
          1   -1    0    0  501    0  0.00000000000E+00 -0.00000000000E+00 -0.99860959310E+03  0.99860959310E+03  0.00000000000E+00 0. -1.
         36    2    1    2    0    0  0.00000000000E+00  0.00000000000E+00 -0.97979342742E+03  0.10174257588E+04  0.27415326768E+03 0.  0.
         25    2    3    3    0    0  0.16197211415E+02  0.41783442378E+02 -0.37030860504E+03  0.39325181257E+03  0.12454043283E+03 0.  0.
         25    2    3    3    0    0 -0.16197211415E+02 -0.41783442378E+02 -0.60948482238E+03  0.62417394619E+03  0.12693762516E+03 0.  0.
          5    1    4    4  502    0 -0.52111223336E+01  0.46460004487E+02 -0.38660839442E+02  0.60847664863E+02  0.47000000000E+01 0.  1.
         -5    1    4    4    0  502  0.21408333748E+02 -0.46765621088E+01 -0.33164776560E+03  0.33240414771E+03  0.47000000000E+01 0.  1.
          5    1    5    5  503    0 -0.39269191872E+02  0.32963914797E+02 -0.32665299530E+03  0.33068558851E+03  0.47000000000E+01 0. -1.
         -5    1    5    5    0  503  0.23071980457E+02 -0.74747357175E+02 -0.28283182708E+03  0.29348835768E+03  0.47000000000E+01 0. -1.
<mgrwt>
<rscale>  0 0.27415327E+03</rscale>
<asrwt>0</asrwt>
<pdfrwt beam="1">  1        1 0.15363231E+00 0.27415327E+03</pdfrwt>
<pdfrwt beam="2">  1       -1 0.28947935E-02 0.27415327E+03</pdfrwt>
<totfact> 0.63694664E+03</totfact>
</mgrwt>
</event>
<event>
 9    1  0.2098759E-002  0.2769891E+03  0.7818608E-02  0.1097345E+00
          1   -1    0    0  501    0  0.00000000000E+00  0.00000000000E+00  0.25487105038E+03  0.25487105038E+03  0.00000000000E+00 0. -1.
         -1   -1    0    0    0  501 -0.00000000000E+00 -0.00000000000E+00 -0.75256619467E+02  0.75256619467E+02  0.00000000000E+00 0. -1.
         36    2    1    2    0    0  0.88817841970E-15  0.00000000000E+00  0.17961443091E+03  0.33012766985E+03  0.27698905142E+03 0.  0.
         25    2    3    3    0    0  0.41150224072E+01 -0.48828380930E+02  0.12997990973E+03  0.18685794535E+03  0.12497988084E+03 0.  0.
         25    2    3    3    0    0 -0.41150224072E+01  0.48828380930E+02  0.49634521185E+02  0.14326972449E+03  0.12514585119E+03 0.  0.
          5    1    4    4  502    0  0.61865104718E+02 -0.41997089606E+02  0.84137143371E+02  0.11265964500E+03  0.47000000000E+01 0.  1.
         -5    1    4    4    0  502 -0.57750082311E+02 -0.68312913246E+01  0.45842766356E+02  0.74198300353E+02  0.47000000000E+01 0.  1.
          5    1    5    5  503    0 -0.59623265452E+01  0.82615866877E+02 -0.61396123681E-01  0.82963995608E+02  0.47000000000E+01 0.  1.
         -5    1    5    5    0  503  0.18473041380E+01 -0.33787485947E+02  0.49695917309E+02  0.60305728885E+02  0.47000000000E+01 0.  1.
<mgrwt>
<rscale>  0 0.27698905E+03</rscale>
<asrwt>0</asrwt>
<pdfrwt beam="1">  1        1 0.39210930E-01 0.27698905E+03</pdfrwt>
<pdfrwt beam="2">  1       -1 0.11577942E-01 0.27698905E+03</pdfrwt>
<totfact> 0.51893949E+03</totfact>
</mgrwt>
</event>
<event>
 9    1  0.2098759E-002  0.2751184E+03  0.7818608E-02  0.1098385E+00
          3   -1    0    0  501    0  0.00000000000E+00  0.00000000000E+00  0.22480751183E+02  0.22480751183E+02  0.00000000000E+00 0. -1.
         -3   -1    0    0    0  501 -0.00000000000E+00 -0.00000000000E+00 -0.84172162628E+03  0.84172162628E+03  0.00000000000E+00 0. -1.
         36    2    1    2    0    0  0.00000000000E+00  0.00000000000E+00 -0.81924087510E+03  0.86420237747E+03  0.27511840684E+03 0.  0.
         25    2    3    3    0    0 -0.18601403267E+02 -0.23862672673E+02 -0.55043292655E+03  0.56522978346E+03  0.12487138234E+03 0.  0.
         25    2    3    3    0    0  0.18601403267E+02  0.23862672673E+02 -0.26880794855E+03  0.29897259401E+03  0.12732422949E+03 0.  0.
          5    1    4    4  502    0  0.28274921156E+02 -0.59390878279E+02 -0.35539234373E+03  0.36145892653E+03  0.47000000000E+01 0.  1.
         -5    1    4    4    0  502 -0.46876324423E+02  0.35528205607E+02 -0.19504058282E+03  0.20377085693E+03  0.47000000000E+01 0.  1.
          5    1    5    5  503    0  0.50194110895E+02  0.44581465074E+02 -0.72154411942E+02  0.98667649001E+02  0.47000000000E+01 0. -1.
         -5    1    5    5    0  503 -0.31592707628E+02 -0.20718792402E+02 -0.19665353661E+03  0.20030494501E+03  0.47000000000E+01 0. -1.
<mgrwt>
<rscale>  0 0.27511841E+03</rscale>
<asrwt>0</asrwt>
<pdfrwt beam="1">  1        3 0.34585774E-02 0.27511841E+03</pdfrwt>
<pdfrwt beam="2">  1       -3 0.12949562E+00 0.27511841E+03</pdfrwt>
<totfact> 0.50912719E+02</totfact>
</mgrwt>
</event>
<event>
 9    1  0.2098759E-002  0.2695399E+03  0.7818608E-02  0.1101543E+00
         -2   -1    0    0    0  501 -0.00000000000E+00  0.00000000000E+00  0.39857358015E+02  0.39857358015E+02  0.00000000000E+00 0.  1.
          2   -1    0    0  501    0  0.00000000000E+00 -0.00000000000E+00 -0.45569854125E+03  0.45569854125E+03  0.00000000000E+00 0.  1.
         36    2    1    2    0    0  0.00000000000E+00  0.71054273576E-14 -0.41584118323E+03  0.49555589926E+03  0.26953990358E+03 0.  0.
         25    2    3    3    0    0  0.26924328545E+02  0.40354626037E+02 -0.23964132988E+03  0.27203844339E+03  0.11926245171E+03 0.  0.
         25    2    3    3    0    0 -0.26924328545E+02 -0.40354626037E+02 -0.17619985336E+03  0.22351745587E+03  0.12868663274E+03 0.  0.
          5    1    4    4  502    0  0.63471374209E+01 -0.44611244511E+01 -0.21765009579E+03  0.21783902769E+03  0.47000000000E+01 0.  1.
         -5    1    4    4    0  502  0.20577191124E+02  0.44815750488E+02 -0.21991234086E+02  0.54199415707E+02  0.47000000000E+01 0.  1.
          5    1    5    5  503    0 -0.49814457219E+02  0.23835607716E+02 -0.32104830072E+02  0.64050187019E+02  0.47000000000E+01 0.  1.
         -5    1    5    5    0  503  0.22890128673E+02 -0.64190233753E+02 -0.14409502329E+03  0.15946726885E+03  0.47000000000E+01 0.  1.
<mgrwt>
<rscale>  0 0.26953990E+03</rscale>
<asrwt>0</asrwt>
<pdfrwt beam="1">  1        2 0.70107467E-01 0.26953990E+03</pdfrwt>
<pdfrwt beam="2">  1       -2 0.61319014E-02 0.26953990E+03</pdfrwt>
<totfact> 0.98161488E+03</totfact>
</mgrwt>
</event>
<event>
 9    1  0.2098759E-002  0.2750522E+03  0.7818608E-02  0.1098422E+00
          1   -1    0    0  501    0  0.00000000000E+00  0.00000000000E+00  0.11063154658E+04  0.11063154658E+04  0.00000000000E+00 0. -1.
         -1   -1    0    0    0  501 -0.00000000000E+00 -0.00000000000E+00 -0.17095869261E+02  0.17095869261E+02  0.00000000000E+00 0. -1.
         36    2    1    2    0    0  0.71054273576E-14  0.35527136788E-14  0.10892195965E+04  0.11234113350E+04  0.27505217370E+03 0.  0.
         25    2    3    3    0    0 -0.21064034156E+02 -0.16459064528E+02  0.31851388953E+03  0.34258998478E+03  0.12329722424E+03 0.  0.
         25    2    3    3    0    0  0.21064034156E+02  0.16459064528E+02  0.77070570697E+03  0.78082135024E+03  0.12239321837E+03 0.  0.
          5    1    4    4  502    0 -0.45930267071E+02 -0.27986698174E+02  0.53111924737E+02  0.75735138854E+02  0.47000000000E+01 0. -1.
         -5    1    4    4    0  502  0.24866232915E+02  0.11527633646E+02  0.26540196480E+03  0.26685484593E+03  0.47000000000E+01 0. -1.
          5    1    5    5  503    0  0.53377866539E+02  0.18121287020E+02  0.16874693683E+03  0.17797526898E+03  0.47000000000E+01 0.  1.
         -5    1    5    5    0  503 -0.32313832383E+02 -0.16622224913E+01  0.60195877014E+03  0.60284608127E+03  0.47000000000E+01 0.  1.
<mgrwt>
<rscale>  0 0.27505217E+03</rscale>
<asrwt>0</asrwt>
<pdfrwt beam="1">  1        1 0.17020232E+00 0.27505217E+03</pdfrwt>
<pdfrwt beam="2">  1       -1 0.26301346E-02 0.27505217E+03</pdfrwt>
<totfact> 0.61157103E+03</totfact>
</mgrwt>
</event>
<event>
 9    1  0.2098759E-002  0.2603167E+03  0.7818608E-02  0.1106953E+00
          2   -1    0    0  501    0  0.00000000000E+00  0.00000000000E+00  0.93655641087E+03  0.93655641087E+03  0.00000000000E+00 0. -1.
         -2   -1    0    0    0  501 -0.00000000000E+00 -0.00000000000E+00 -0.18088816968E+02  0.18088816968E+02  0.00000000000E+00 0. -1.
         36    2    1    2    0    0 -0.71054273576E-14 -0.17763568394E-14  0.91846759390E+03  0.95464522783E+03  0.26031671092E+03 0.  0.
         25    2    3    3    0    0 -0.13119804049E+02 -0.13358176666E+02  0.57597592744E+03  0.58962317926E+03  0.12472631795E+03 0.  0.
         25    2    3    3    0    0  0.13119804049E+02  0.13358176666E+02  0.34249166646E+03  0.36502204857E+03  0.12485985828E+03 0.  0.
          5    1    4    4  502    0  0.45241112060E+02  0.10863615188E+02  0.11244351757E+03  0.12178017490E+03  0.47000000000E+01 0.  1.
         -5    1    4    4    0  502 -0.58360916109E+02 -0.24221791854E+02  0.46353240987E+03  0.46784300436E+03  0.47000000000E+01 0.  1.
          5    1    5    5  503    0  0.60533374780E+02  0.73579086112E+00  0.27394685375E+03  0.28059543747E+03  0.47000000000E+01 0.  1.
         -5    1    5    5    0  503 -0.47413570731E+02  0.12622385805E+02  0.68544812709E+02  0.84426611101E+02  0.47000000000E+01 0.  1.
<mgrwt>
<rscale>  0 0.26031671E+03</rscale>
<asrwt>0</asrwt>
<pdfrwt beam="1">  1        2 0.14408556E+00 0.26031671E+03</pdfrwt>
<pdfrwt beam="2">  1       -2 0.27828956E-02 0.26031671E+03</pdfrwt>
<totfact> 0.13559646E+04</totfact>
</mgrwt>
</event>
<event>
 9    1  0.2098759E-002  0.2749793E+03  0.7818608E-02  0.1098463E+00
          2   -1    0    0  501    0  0.00000000000E+00  0.00000000000E+00  0.10262214684E+03  0.10262214684E+03  0.00000000000E+00 0. -1.
         -2   -1    0    0    0  501 -0.00000000000E+00 -0.00000000000E+00 -0.18420393721E+03  0.18420393721E+03  0.00000000000E+00 0. -1.
         36    2    1    2    0    0  0.35527136788E-14  0.88817841970E-15 -0.81581790371E+02  0.28682608405E+03  0.27497929736E+03 0.  0.
         25    2    3    3    0    0  0.27005901068E+02 -0.73952801724E+01  0.27343106233E+01  0.13466714131E+03  0.13169568570E+03 0.  0.
         25    2    3    3    0    0 -0.27005901068E+02  0.73952801724E+01 -0.84316100994E+02  0.15215894274E+03  0.12352785155E+03 0.  0.
          5    1    4    4  502    0 -0.13422982062E+02 -0.30997765417E+02  0.54766378228E+02  0.64517316222E+02  0.47000000000E+01 0.  1.
         -5    1    4    4    0  502  0.40428883130E+02  0.23602485245E+02 -0.52032067605E+02  0.70149825090E+02  0.47000000000E+01 0.  1.
          5    1    5    5  503    0  0.29562157569E+02 -0.69077454066E+01 -0.88295051949E+02  0.93486599604E+02  0.47000000000E+01 0. -1.
         -5    1    5    5    0  503 -0.56568058637E+02  0.14303025579E+02  0.39789509550E+01  0.58672343139E+02  0.47000000000E+01 0. -1.
<mgrwt>
<rscale>  0 0.27497930E+03</rscale>
<asrwt>0</asrwt>
<pdfrwt beam="1">  1        2 0.15788023E-01 0.27497930E+03</pdfrwt>
<pdfrwt beam="2">  1       -2 0.28339067E-01 0.27497930E+03</pdfrwt>
<totfact> 0.41353466E+03</totfact>
</mgrwt>
</event>
<event>
 9    1  0.2098759E-002  0.2754792E+03  0.7818608E-02  0.1098184E+00
          2   -1    0    0  501    0  0.00000000000E+00  0.00000000000E+00  0.14076916441E+03  0.14076916441E+03  0.00000000000E+00 0. -1.
         -2   -1    0    0    0  501 -0.00000000000E+00 -0.00000000000E+00 -0.13477524955E+03  0.13477524955E+03  0.00000000000E+00 0. -1.
         36    2    1    2    0    0  0.00000000000E+00 -0.35527136788E-14  0.59939148642E+01  0.27554441396E+03  0.27547921346E+03 0.  0.
         25    2    3    3    0    0 -0.52579178135E+02 -0.28128447931E+02 -0.78371022238E+01  0.13757738877E+03  0.12373495130E+03 0.  0.
         25    2    3    3    0    0  0.52579178135E+02  0.28128447931E+02  0.13831017088E+02  0.13796702519E+03  0.12364393818E+03 0.  0.
          5    1    4    4  502    0 -0.86202419092E+02  0.90584017658E+01 -0.84997604976E+01  0.87219536965E+02  0.47000000000E+01 0. -1.
         -5    1    4    4    0  502  0.33623240957E+02 -0.37186849696E+02  0.66265827380E+00  0.50357851809E+02  0.47000000000E+01 0. -1.
          5    1    5    5  503    0  0.57850356239E+02 -0.15932981249E+02  0.51774173135E+02  0.79392560182E+02  0.47000000000E+01 0.  1.
         -5    1    5    5    0  503 -0.52711781038E+01  0.44061429179E+02 -0.37943156047E+02  0.58574465006E+02  0.47000000000E+01 0.  1.
<mgrwt>
<rscale>  0 0.27547921E+03</rscale>
<asrwt>0</asrwt>
<pdfrwt beam="1">  1        2 0.21656795E-01 0.27547921E+03</pdfrwt>
<pdfrwt beam="2">  1       -2 0.20734654E-01 0.27547921E+03</pdfrwt>
<totfact> 0.49692057E+03</totfact>
</mgrwt>
</event>
<event>
 9    1  0.2098759E-002  0.2756373E+03  0.7818608E-02  0.1098096E+00
         -4   -1    0    0    0  501 -0.00000000000E+00  0.00000000000E+00  0.46566632223E+03  0.46566632223E+03  0.00000000000E+00 0. -1.
          4   -1    0    0  501    0  0.00000000000E+00 -0.00000000000E+00 -0.40788819288E+02  0.40788819288E+02  0.00000000000E+00 0. -1.
         36    2    1    2    0    0 -0.35527136788E-14  0.00000000000E+00  0.42487750295E+03  0.50645514152E+03  0.27563729404E+03 0.  0.
         25    2    3    3    0    0  0.27280556211E+02  0.38403696153E+02  0.24169680976E+03  0.27626740048E+03  0.12524877682E+03 0.  0.
         25    2    3    3    0    0 -0.27280556211E+02 -0.38403696153E+02  0.18318069319E+03  0.23018774104E+03  0.13119511097E+03 0.  0.
          5    1    4    4  502    0  0.23951233138E+02  0.81036972335E+02  0.19607572484E+03  0.21356130812E+03  0.47000000000E+01 0.  1.
         -5    1    4    4    0  502  0.33293230728E+01 -0.42633276182E+02  0.45621084913E+02  0.62706092357E+02  0.47000000000E+01 0.  1.
          5    1    5    5  503    0  0.40109333421E+02  0.21345274195E+02  0.87486419068E+02  0.98693175444E+02  0.47000000000E+01 0.  1.
         -5    1    5    5    0  503 -0.67389889632E+02 -0.59748970348E+02  0.95694274120E+02  0.13149456560E+03  0.47000000000E+01 0.  1.
<mgrwt>
<rscale>  0 0.27563729E+03</rscale>
<asrwt>0</asrwt>
<pdfrwt beam="1">  1        4 0.62752033E-02 0.27563729E+03</pdfrwt>
<pdfrwt beam="2">  1       -4 0.71640969E-01 0.27563729E+03</pdfrwt>
<totfact> 0.56024862E+02</totfact>
</mgrwt>
</event>
<event>
 9    1  0.2098759E-002  0.2737857E+03  0.7818608E-02  0.1099132E+00
         -1   -1    0    0    0  501 -0.00000000000E+00  0.00000000000E+00  0.48374024087E+03  0.48374024087E+03  0.00000000000E+00 0.  1.
          1   -1    0    0  501    0  0.00000000000E+00 -0.00000000000E+00 -0.38739095121E+02  0.38739095121E+02  0.00000000000E+00 0.  1.
         36    2    1    2    0    0  0.17763568394E-14 -0.17763568394E-14  0.44500114575E+03  0.52247933599E+03  0.27378574985E+03 0.  0.
         25    2    3    3    0    0 -0.11472149870E+02  0.48374160227E+00  0.12140234692E+03  0.17506253972E+03  0.12560461276E+03 0.  0.
         25    2    3    3    0    0  0.11472149870E+02 -0.48374160227E+00  0.32359879883E+03  0.34741679628E+03  0.12589838561E+03 0.  0.
          5    1    4    4  502    0 -0.11489884172E+02 -0.61195513204E+02  0.75827711377E+02  0.98228509544E+02  0.47000000000E+01 0. -1.
         -5    1    4    4    0  502  0.17734301804E-01  0.61679254807E+02  0.45574635541E+02  0.76834030174E+02  0.47000000000E+01 0. -1.
          5    1    5    5  503    0  0.21310522893E+02  0.14229784400E+02  0.29197495511E+01  0.26215264399E+02  0.47000000000E+01 0. -1.
         -5    1    5    5    0  503 -0.98383730231E+01 -0.14713526002E+02  0.32067904928E+03  0.32120153188E+03  0.47000000000E+01 0. -1.
<mgrwt>
<rscale>  0 0.27378575E+03</rscale>
<asrwt>0</asrwt>
<pdfrwt beam="1">  1        1 0.59598611E-02 0.27378575E+03</pdfrwt>
<pdfrwt beam="2">  1       -1 0.74421571E-01 0.27378575E+03</pdfrwt>
<totfact> 0.24640999E+03</totfact>
</mgrwt>
</event>
<event>
 9    1  0.2098759E-002  0.2757284E+03  0.7818608E-02  0.1098045E+00
         -1   -1    0    0    0  501 -0.00000000000E+00  0.00000000000E+00  0.86597649165E+02  0.86597649165E+02  0.00000000000E+00 0.  1.
          1   -1    0    0  501    0  0.00000000000E+00 -0.00000000000E+00 -0.21948096910E+03  0.21948096910E+03  0.00000000000E+00 0.  1.
         36    2    1    2    0    0  0.00000000000E+00 -0.35527136788E-14 -0.13288331993E+03  0.30607861826E+03  0.27572838780E+03 0.  0.
         25    2    3    3    0    0 -0.34215711935E+02 -0.26841921055E+02 -0.10904303470E+03  0.17196955721E+03  0.12566599191E+03 0.  0.
         25    2    3    3    0    0  0.34215711935E+02  0.26841921055E+02 -0.23840285235E+02  0.13410906105E+03  0.12460207617E+03 0.  0.
          5    1    4    4  502    0  0.35602309553E+01  0.14944051677E+02  0.23161522676E+02  0.28187693372E+02  0.47000000000E+01 0.  1.
         -5    1    4    4    0  502 -0.37775942890E+02 -0.41785972732E+02 -0.13220455737E+03  0.14378186384E+03  0.47000000000E+01 0.  1.
          5    1    5    5  503    0  0.31632837975E+02 -0.65753848263E+00 -0.71778867805E+02  0.78583488461E+02  0.47000000000E+01 0. -1.
         -5    1    5    5    0  503  0.25828739593E+01  0.27499459537E+02  0.47938582570E+02  0.55525572591E+02  0.47000000000E+01 0. -1.
<mgrwt>
<rscale>  0 0.27572839E+03</rscale>
<asrwt>0</asrwt>
<pdfrwt beam="1">  1        1 0.33766303E-01 0.27572839E+03</pdfrwt>
<pdfrwt beam="2">  1       -1 0.13322715E-01 0.27572839E+03</pdfrwt>
<totfact> 0.50253068E+03</totfact>
</mgrwt>
</event>
<event>
 9    1  0.2098759E-002  0.2746873E+03  0.7818608E-02  0.1098627E+00
         -2   -1    0    0    0  501 -0.00000000000E+00  0.00000000000E+00  0.25959438799E+02  0.25959438799E+02  0.00000000000E+00 0.  1.
          2   -1    0    0  501    0  0.00000000000E+00 -0.00000000000E+00 -0.72664421212E+03  0.72664421212E+03  0.00000000000E+00 0.  1.
         36    2    1    2    0    0  0.00000000000E+00  0.14210854715E-13 -0.70068477332E+03  0.75260365092E+03  0.27468728367E+03 0.  0.
         25    2    3    3    0    0 -0.69562822034E+01 -0.50915190012E+02 -0.48372140082E+03  0.49757742954E+03  0.10467166925E+03 0.  0.
         25    2    3    3    0    0  0.69562822034E+01  0.50915190012E+02 -0.21696337250E+03  0.25502622137E+03  0.12379225398E+03 0.  0.
          5    1    4    4  502    0  0.15896769757E+01  0.28979292495E+02 -0.67193066785E+02  0.73343879707E+02  0.47000000000E+01 0.  1.
         -5    1    4    4    0  502 -0.85459591791E+01 -0.79894482508E+02 -0.41652833403E+03  0.42423354984E+03  0.47000000000E+01 0.  1.
          5    1    5    5  503    0  0.10315395014E+02  0.43054152784E+02 -0.72760199794E+01  0.45112059507E+02  0.47000000000E+01 0.  1.
         -5    1    5    5    0  503 -0.33591128102E+01  0.78610372281E+01 -0.20968735252E+03  0.20991416187E+03  0.47000000000E+01 0.  1.
<mgrwt>
<rscale>  0 0.27468728E+03</rscale>
<asrwt>0</asrwt>
<pdfrwt beam="1">  1        2 0.11179141E+00 0.27468728E+03</pdfrwt>
<pdfrwt beam="2">  1       -2 0.39937600E-02 0.27468728E+03</pdfrwt>
<totfact> 0.10991347E+04</totfact>
</mgrwt>
</event>
<event>
 9    1  0.2098759E-002  0.2748700E+03  0.7818608E-02  0.1098524E+00
          2   -1    0    0  501    0  0.00000000000E+00  0.00000000000E+00  0.14621634680E+04  0.14621634680E+04  0.00000000000E+00 0.  1.
         -2   -1    0    0    0  501 -0.00000000000E+00 -0.00000000000E+00 -0.12918101029E+02  0.12918101029E+02  0.00000000000E+00 0.  1.
         36    2    1    2    0    0  0.00000000000E+00  0.00000000000E+00  0.14492453670E+04  0.14750815691E+04  0.27486997217E+03 0.  0.
         25    2    3    3    0    0  0.42515422283E+02 -0.18968103111E+02  0.52529569678E+03  0.54150842866E+03  0.12299780153E+03 0.  0.
         25    2    3    3    0    0 -0.42515422283E+02  0.18968103111E+02  0.92394967023E+03  0.93357314041E+03  0.12533341659E+03 0.  0.
          5    1    4    4  502    0  0.81956865505E+02  0.94639603360E+01  0.32446873818E+03  0.33482614355E+03  0.47000000000E+01 0. -1.
         -5    1    4    4    0  502 -0.39441443222E+02 -0.28432063447E+02  0.20082695860E+03  0.20668228511E+03  0.47000000000E+01 0. -1.
          5    1    5    5  503    0 -0.67863983408E+00 -0.39159351221E+02  0.62044575060E+03  0.62169842752E+03  0.47000000000E+01 0. -1.
         -5    1    5    5    0  503 -0.41836782449E+02  0.58127454333E+02  0.30350391963E+03  0.31187471290E+03  0.47000000000E+01 0. -1.
<mgrwt>
<rscale>  0 0.27486997E+03</rscale>
<asrwt>0</asrwt>
<pdfrwt beam="1">  1        2 0.22494809E+00 0.27486997E+03</pdfrwt>
<pdfrwt beam="2">  1       -2 0.19874013E-02 0.27486997E+03</pdfrwt>
<totfact> 0.11156324E+04</totfact>
</mgrwt>
</event>
<event>
 9    1  0.2098759E-002  0.2759345E+03  0.7818608E-02  0.1097930E+00
          2   -1    0    0  501    0  0.00000000000E+00  0.00000000000E+00  0.11841899977E+03  0.11841899977E+03  0.00000000000E+00 0. -1.
         -2   -1    0    0    0  501 -0.00000000000E+00 -0.00000000000E+00 -0.16074251557E+03  0.16074251557E+03  0.00000000000E+00 0. -1.
         36    2    1    2    0    0 -0.71054273576E-14  0.71054273576E-14 -0.42323515800E+02  0.27916151534E+03  0.27593454234E+03 0.  0.
         25    2    3    3    0    0  0.21012965879E+02 -0.48325726112E+02  0.15034613047E+02  0.13696251120E+03  0.12552198750E+03 0.  0.
         25    2    3    3    0    0 -0.21012965879E+02  0.48325726112E+02 -0.57358128847E+02  0.14219900414E+03  0.11896924516E+03 0.  0.
          5    1    4    4  502    0 -0.45447340179E+02 -0.46784933592E+02 -0.92224083008E+01  0.66041150470E+02  0.47000000000E+01 0. -1.
         -5    1    4    4    0  502  0.66460306058E+02 -0.15407925198E+01  0.24257021347E+02  0.70921360728E+02  0.47000000000E+01 0. -1.
          5    1    5    5  503    0 -0.30650665101E+02 -0.21771960981E+02 -0.60310533222E+02  0.71224518065E+02  0.47000000000E+01 0. -1.
         -5    1    5    5    0  503  0.96376992213E+01  0.70097687092E+02  0.29524043752E+01  0.70974486074E+02  0.47000000000E+01 0. -1.
<mgrwt>
<rscale>  0 0.27593454E+03</rscale>
<asrwt>0</asrwt>
<pdfrwt beam="1">  1        2 0.18218308E-01 0.27593454E+03</pdfrwt>
<pdfrwt beam="2">  1       -2 0.24729618E-01 0.27593454E+03</pdfrwt>
<totfact> 0.44590648E+03</totfact>
</mgrwt>
</event>
<event>
 9    1  0.2098759E-002  0.2734772E+03  0.7818608E-02  0.1099306E+00
          1   -1    0    0  501    0  0.00000000000E+00  0.00000000000E+00  0.64108001287E+03  0.64108001287E+03  0.00000000000E+00 0. -1.
         -1   -1    0    0    0  501 -0.00000000000E+00 -0.00000000000E+00 -0.29165548339E+02  0.29165548339E+02  0.00000000000E+00 0. -1.
         36    2    1    2    0    0  0.00000000000E+00  0.00000000000E+00  0.61191446453E+03  0.67024556121E+03  0.27347723930E+03 0.  0.
         25    2    3    3    0    0  0.23485471257E+02  0.44192554480E+02  0.31737272457E+03  0.34567374468E+03  0.12751604696E+03 0.  0.
         25    2    3    3    0    0 -0.23485471257E+02 -0.44192554480E+02  0.29454173996E+03  0.32457181653E+03  0.12683642328E+03 0.  0.
          5    1    4    4  502    0 -0.50588149970E+02  0.61749100600E+01  0.15341631130E+03  0.16172799697E+03  0.47000000000E+01 0. -1.
         -5    1    4    4    0  502  0.74073621227E+02  0.38017644420E+02  0.16395641326E+03  0.18394574771E+03  0.47000000000E+01 0. -1.
          5    1    5    5  503    0  0.43664342826E+02  0.15310277939E+02  0.10096679259E+03  0.11116367505E+03  0.47000000000E+01 0. -1.
         -5    1    5    5    0  503 -0.67149814084E+02 -0.59502832419E+02  0.19357494738E+03  0.21340814148E+03  0.47000000000E+01 0. -1.
<mgrwt>
<rscale>  0 0.27347724E+03</rscale>
<asrwt>0</asrwt>
<pdfrwt beam="1">  1        1 0.98627683E-01 0.27347724E+03</pdfrwt>
<pdfrwt beam="2">  1       -1 0.44870079E-02 0.27347724E+03</pdfrwt>
<totfact> 0.66082959E+03</totfact>
</mgrwt>
</event>
<event>
 9    1  0.2098759E-002  0.2749477E+03  0.7818608E-02  0.1098481E+00
          2   -1    0    0  501    0  0.00000000000E+00  0.00000000000E+00  0.15097544720E+04  0.15097544720E+04  0.00000000000E+00 0.  1.
         -2   -1    0    0    0  501 -0.00000000000E+00 -0.00000000000E+00 -0.12517972686E+02  0.12517972686E+02  0.00000000000E+00 0.  1.
         36    2    1    2    0    0  0.00000000000E+00 -0.71054273576E-14  0.14972364994E+04  0.15222724447E+04  0.27494774226E+03 0.  0.
         25    2    3    3    0    0 -0.17053045475E+02 -0.52965710940E+02  0.83997374581E+03  0.85097625264E+03  0.12453319242E+03 0.  0.
         25    2    3    3    0    0  0.17053045475E+02  0.52965710940E+02  0.65726275355E+03  0.67129619209E+03  0.12469193003E+03 0.  0.
          5    1    4    4  502    0 -0.30028947344E+02  0.29723269078E+02  0.14934064102E+03  0.15527371788E+03  0.47000000000E+01 0. -1.
         -5    1    4    4    0  502  0.12975901869E+02 -0.82688980018E+02  0.69063310479E+03  0.69570253476E+03  0.47000000000E+01 0. -1.
          5    1    5    5  503    0  0.49449768134E+02  0.65911839743E+02  0.26739860375E+03  0.27984594597E+03  0.47000000000E+01 0. -1.
         -5    1    5    5    0  503 -0.32396722659E+02 -0.12946128803E+02  0.38986414980E+03  0.39145024612E+03  0.47000000000E+01 0. -1.
<mgrwt>
<rscale>  0 0.27494774E+03</rscale>
<asrwt>0</asrwt>
<pdfrwt beam="1">  1        2 0.23226977E+00 0.27494774E+03</pdfrwt>
<pdfrwt beam="2">  1       -2 0.19258431E-02 0.27494774E+03</pdfrwt>
<totfact> 0.11017837E+04</totfact>
</mgrwt>
</event>
<event>
 9    1  0.2098759E-002  0.2750715E+03  0.7818608E-02  0.1098412E+00
          2   -1    0    0  501    0  0.00000000000E+00  0.00000000000E+00  0.14716405700E+03  0.14716405700E+03  0.00000000000E+00 0.  1.
         -2   -1    0    0    0  501 -0.00000000000E+00 -0.00000000000E+00 -0.12853742696E+03  0.12853742696E+03  0.00000000000E+00 0.  1.
         36    2    1    2    0    0  0.00000000000E+00  0.71054273576E-14  0.18626630043E+02  0.27570148396E+03  0.27507154871E+03 0.  0.
         25    2    3    3    0    0 -0.12060606064E+02  0.44993432331E+02  0.45467793389E+02  0.14135661520E+03  0.12547711047E+03 0.  0.
         25    2    3    3    0    0  0.12060606064E+02 -0.44993432331E+02 -0.26841163346E+02  0.13434486876E+03  0.12311875787E+03 0.  0.
          5    1    4    4  502    0 -0.52074368197E+02  0.35017269589E+02  0.69208747281E+02  0.93540845050E+02  0.47000000000E+01 0. -1.
         -5    1    4    4    0  502  0.40013762133E+02  0.99761627418E+01 -0.23740953892E+02  0.47815770147E+02  0.47000000000E+01 0. -1.
          5    1    5    5  503    0  0.84782980368E+01 -0.57213696820E+02  0.37168267617E+02  0.68911963832E+02  0.47000000000E+01 0.  1.
         -5    1    5    5    0  503  0.35823080271E+01  0.12220264490E+02 -0.64009430963E+02  0.65432904927E+02  0.47000000000E+01 0.  1.
<mgrwt>
<rscale>  0 0.27507155E+03</rscale>
<asrwt>0</asrwt>
<pdfrwt beam="1">  1        2 0.22640624E-01 0.27507155E+03</pdfrwt>
<pdfrwt beam="2">  1       -2 0.19774989E-01 0.27507155E+03</pdfrwt>
<totfact> 0.51249180E+03</totfact>
</mgrwt>
</event>
<event>
 9    1  0.2098759E-002  0.2748534E+03  0.7818608E-02  0.1098534E+00
         -1   -1    0    0    0  501 -0.00000000000E+00  0.00000000000E+00  0.34037895298E+02  0.34037895298E+02  0.00000000000E+00 0. -1.
          1   -1    0    0  501    0  0.00000000000E+00 -0.00000000000E+00 -0.55485514154E+03  0.55485514154E+03  0.00000000000E+00 0. -1.
         36    2    1    2    0    0  0.00000000000E+00  0.00000000000E+00 -0.52081724624E+03  0.58889303684E+03  0.27485342431E+03 0.  0.
         25    2    3    3    0    0  0.81389779579E-01  0.42147169600E+02 -0.29772337908E+03  0.33026009696E+03  0.13658744694E+03 0.  0.
         25    2    3    3    0    0 -0.81389779579E-01 -0.42147169600E+02 -0.22309386716E+03  0.25863293988E+03  0.12386982480E+03 0.  0.
          5    1    4    4  502    0 -0.38502782871E+02  0.74756252865E+02 -0.12887727351E+03  0.15395584840E+03  0.47000000000E+01 0.  1.
         -5    1    4    4    0  502  0.38584172651E+02 -0.32609083266E+02 -0.16884610558E+03  0.17630424856E+03  0.47000000000E+01 0.  1.
          5    1    5    5  503    0  0.52994888298E+02 -0.54272328860E+02 -0.12271644689E+03  0.14434458841E+03  0.47000000000E+01 0.  1.
         -5    1    5    5    0  503 -0.53076278077E+02  0.12125159260E+02 -0.10037742027E+03  0.11428835147E+03  0.47000000000E+01 0.  1.
<mgrwt>
<rscale>  0 0.27485342E+03</rscale>
<asrwt>0</asrwt>
<pdfrwt beam="1">  1        1 0.85362329E-01 0.27485342E+03</pdfrwt>
<pdfrwt beam="2">  1       -1 0.52365993E-02 0.27485342E+03</pdfrwt>
<totfact> 0.64085531E+03</totfact>
</mgrwt>
</event>
<event>
 9    1  0.2098759E-002  0.2753376E+03  0.7818608E-02  0.1098263E+00
         -1   -1    0    0    0  501 -0.00000000000E+00  0.00000000000E+00  0.30389766609E+02  0.30389766609E+02  0.00000000000E+00 0.  1.
          1   -1    0    0  501    0  0.00000000000E+00 -0.00000000000E+00 -0.62365411381E+03  0.62365411381E+03  0.00000000000E+00 0.  1.
         36    2    1    2    0    0  0.71054273576E-14  0.35527136788E-14 -0.59326434720E+03  0.65404388042E+03  0.27533763247E+03 0.  0.
         25    2    3    3    0    0 -0.28831971296E+02 -0.18344383499E+02 -0.18755378882E+03  0.22967016388E+03  0.12807873165E+03 0.  0.
         25    2    3    3    0    0  0.28831971296E+02  0.18344383499E+02 -0.40571055838E+03  0.42437371654E+03  0.11968372961E+03 0.  0.
          5    1    4    4  502    0 -0.57361779933E+02 -0.29186147002E+02 -0.33802552040E+02  0.72848524339E+02  0.47000000000E+01 0. -1.
         -5    1    4    4    0  502  0.28529808636E+02  0.10841763503E+02 -0.15375123678E+03  0.15682163954E+03  0.47000000000E+01 0. -1.
          5    1    5    5  503    0  0.48903274801E+02  0.55261429116E+02 -0.17760439344E+03  0.19238182451E+03  0.47000000000E+01 0.  1.
         -5    1    5    5    0  503 -0.20071303505E+02 -0.36917045616E+02 -0.22810616494E+03  0.23199189202E+03  0.47000000000E+01 0.  1.
<mgrwt>
<rscale>  0 0.27533763E+03</rscale>
<asrwt>0</asrwt>
<pdfrwt beam="1">  1        1 0.95946778E-01 0.27533763E+03</pdfrwt>
<pdfrwt beam="2">  1       -1 0.46753491E-02 0.27533763E+03</pdfrwt>
<totfact> 0.64622084E+03</totfact>
</mgrwt>
</event>
<event>
 8    1  0.2098759E-002  0.3244723E+03  0.7818608E-02  0.1073609E+00
         -1   -1    0    0    0  501 -0.00000000000E+00  0.00000000000E+00  0.21291996826E+02  0.21291996826E+02  0.00000000000E+00 0. -1.
          1   -1    0    0  501    0  0.00000000000E+00 -0.00000000000E+00 -0.12361721727E+04  0.12361721727E+04  0.00000000000E+00 0. -1.
         25    2    1    2    0    0  0.76301165438E+02  0.32414904240E+02 -0.35902686486E+03  0.38902687313E+03  0.12477589698E+03 0.  0.
         25    2    1    2    0    0 -0.76301165438E+02 -0.32414904240E+02 -0.85585331106E+03  0.86843729644E+03  0.12176146321E+03 0.  0.
          5    1    3    3  502    0  0.75089078772E+02  0.74120994181E+02 -0.22454506900E+03  0.24814284101E+03  0.47000000000E+01 0.  1.
         -5    1    3    3    0  502  0.12120866667E+01 -0.41706089941E+02 -0.13448179586E+03  0.14088403213E+03  0.47000000000E+01 0.  1.
          5    1    4    4  503    0 -0.85670794369E+02  0.24557080274E+02 -0.53670451421E+03  0.54407385599E+03  0.47000000000E+01 0. -1.
         -5    1    4    4    0  503  0.93696289306E+01 -0.56971984514E+02 -0.31914879686E+03  0.32436344045E+03  0.47000000000E+01 0. -1.
<mgrwt>
<rscale>  0 0.32447233E+03</rscale>
<asrwt>0</asrwt>
<pdfrwt beam="1">  1        1 0.19018029E+00 0.32447233E+03</pdfrwt>
<pdfrwt beam="2">  1       -1 0.32756926E-02 0.32447233E+03</pdfrwt>
<totfact> 0.35842475E+03</totfact>
</mgrwt>
</event>
<event>
 9    1  0.2098759E-002  0.2740981E+03  0.7818608E-02  0.1098957E+00
         -1   -1    0    0    0  501 -0.00000000000E+00  0.00000000000E+00  0.81410039738E+02  0.81410039738E+02  0.00000000000E+00 0.  1.
          1   -1    0    0  501    0  0.00000000000E+00 -0.00000000000E+00 -0.23071400205E+03  0.23071400205E+03  0.00000000000E+00 0.  1.
         36    2    1    2    0    0  0.35527136788E-14  0.71054273576E-14 -0.14930396231E+03  0.31212404178E+03  0.27409805599E+03 0.  0.
         25    2    3    3    0    0 -0.11506047845E+02 -0.22215127498E+02 -0.13894716710E+03  0.18560858618E+03  0.12049203705E+03 0.  0.
         25    2    3    3    0    0  0.11506047845E+02  0.22215127498E+02 -0.10356795203E+02  0.12651545560E+03  0.12358396446E+03 0.  0.
          5    1    4    4  502    0  0.11259258942E+02  0.24167732000E+02  0.92364223638E+01  0.28605098847E+02  0.47000000000E+01 0. -1.
         -5    1    4    4    0  502 -0.22765306787E+02 -0.46382859498E+02 -0.14818358947E+03  0.15700348734E+03  0.47000000000E+01 0. -1.
          5    1    5    5  503    0 -0.28112385626E+02  0.31432050455E+02 -0.52669057753E+02  0.67634308349E+02  0.47000000000E+01 0.  1.
         -5    1    5    5    0  503  0.39618433471E+02 -0.92169229570E+01  0.42312262550E+02  0.58881147251E+02  0.47000000000E+01 0.  1.
<mgrwt>
<rscale>  0 0.27409806E+03</rscale>
<asrwt>0</asrwt>
<pdfrwt beam="1">  1        1 0.35494462E-01 0.27409806E+03</pdfrwt>
<pdfrwt beam="2">  1       -1 0.12524621E-01 0.27409806E+03</pdfrwt>
<totfact> 0.51993311E+03</totfact>
</mgrwt>
</event>
<event>
 9    1  0.2098759E-002  0.2752444E+03  0.7818608E-02  0.1098315E+00
          2   -1    0    0  501    0  0.00000000000E+00  0.00000000000E+00  0.23806531824E+04  0.23806531824E+04  0.00000000000E+00 0. -1.
         -2   -1    0    0    0  501 -0.00000000000E+00 -0.00000000000E+00 -0.79557447576E+01  0.79557447576E+01  0.00000000000E+00 0. -1.
         36    2    1    2    0    0  0.71054273576E-14 -0.71054273576E-14  0.23726974377E+04  0.23886089272E+04  0.27524439377E+03 0.  0.
         25    2    3    3    0    0 -0.55451800784E+02  0.64536726027E+01  0.10864255110E+04  0.10951054403E+04  0.12577353603E+03 0.  0.
         25    2    3    3    0    0  0.55451800784E+02 -0.64536726027E+01  0.12862719266E+04  0.12935034868E+04  0.12465652448E+03 0.  0.
          5    1    4    4  502    0 -0.58879311050E+02 -0.36030828022E+02  0.31592259060E+03  0.32341021488E+03  0.47000000000E+01 0.  1.
         -5    1    4    4    0  502  0.34275102664E+01  0.42484500624E+02  0.77050292043E+03  0.77169522547E+03  0.47000000000E+01 0.  1.
          5    1    5    5  503    0  0.65536790490E+01  0.28782798694E+02  0.75190943728E+02  0.80914573647E+02  0.47000000000E+01 0. -1.
         -5    1    5    5    0  503  0.48898121735E+02 -0.35236471296E+02  0.12110809829E+04  0.12125889132E+04  0.47000000000E+01 0. -1.
<mgrwt>
<rscale>  0 0.27524439E+03</rscale>
<asrwt>0</asrwt>
<pdfrwt beam="1">  1        2 0.36625377E+00 0.27524439E+03</pdfrwt>
<pdfrwt beam="2">  1       -2 0.12239626E-02 0.27524439E+03</pdfrwt>
<totfact> 0.73989728E+03</totfact>
</mgrwt>
</event>
<event>
 9    1  0.2098759E-002  0.2750587E+03  0.7818608E-02  0.1098419E+00
          2   -1    0    0  501    0  0.00000000000E+00  0.00000000000E+00  0.16417743713E+04  0.16417743713E+04  0.00000000000E+00 0.  1.
         -2   -1    0    0    0  501 -0.00000000000E+00 -0.00000000000E+00 -0.11520660841E+02  0.11520660841E+02  0.00000000000E+00 0.  1.
         36    2    1    2    0    0  0.00000000000E+00  0.00000000000E+00  0.16302537104E+04  0.16532950321E+04  0.27505872615E+03 0.  0.
         25    2    3    3    0    0 -0.32294945580E+02  0.42190574884E+02  0.84096000348E+03  0.85181221319E+03  0.12468885664E+03 0.  0.
         25    2    3    3    0    0  0.32294945580E+02 -0.42190574884E+02  0.78929370694E+03  0.80148281891E+03  0.12871342227E+03 0.  0.
          5    1    4    4  502    0  0.38150929137E+01  0.69651553432E+02  0.26561035622E+03  0.27465768724E+03  0.47000000000E+01 0. -1.
         -5    1    4    4    0  502 -0.36110038494E+02 -0.27460978548E+02  0.57534964726E+03  0.57715452595E+03  0.47000000000E+01 0. -1.
          5    1    5    5  503    0  0.19028645978E+02 -0.73122813730E+02  0.72331950594E+03  0.72727039877E+03  0.47000000000E+01 0.  1.
         -5    1    5    5    0  503  0.13266299602E+02  0.30932238846E+02  0.65974200997E+02  0.74212420135E+02  0.47000000000E+01 0.  1.
<mgrwt>
<rscale>  0 0.27505873E+03</rscale>
<asrwt>0</asrwt>
<pdfrwt beam="1">  1        2 0.25258049E+00 0.27505873E+03</pdfrwt>
<pdfrwt beam="2">  1       -2 0.17724107E-02 0.27505873E+03</pdfrwt>
<totfact> 0.10590692E+04</totfact>
</mgrwt>
</event>
<event>
 9    1  0.2098759E-002  0.2749034E+03  0.7818608E-02  0.1098506E+00
          1   -1    0    0  501    0  0.00000000000E+00  0.00000000000E+00  0.20248172907E+04  0.20248172907E+04  0.00000000000E+00 0. -1.
         -1   -1    0    0    0  501 -0.00000000000E+00 -0.00000000000E+00 -0.93307031126E+01  0.93307031126E+01  0.00000000000E+00 0. -1.
         36    2    1    2    0    0  0.00000000000E+00  0.71054273576E-14  0.20154865876E+04  0.20341479938E+04  0.27490339392E+03 0.  0.
         25    2    3    3    0    0 -0.25756469916E+02  0.54671068494E+02  0.11714755429E+04  0.11790917434E+04  0.11937365861E+03 0.  0.
         25    2    3    3    0    0  0.25756469916E+02 -0.54671068494E+02  0.84401104474E+03  0.85505625042E+03  0.12293992952E+03 0.  0.
          5    1    4    4  502    0 -0.58645987478E+02  0.32245377157E+02  0.33477270215E+03  0.34142930206E+03  0.47000000000E+01 0. -1.
         -5    1    4    4    0  502  0.32889517562E+02  0.22425691337E+02  0.83670284071E+03  0.83766244135E+03  0.47000000000E+01 0. -1.
          5    1    5    5  503    0 -0.46138663831E+02 -0.19678714721E+02  0.20764388700E+03  0.21366820522E+03  0.47000000000E+01 0. -1.
         -5    1    5    5    0  503  0.71895133747E+02 -0.34992353772E+02  0.63636715774E+03  0.64138804520E+03  0.47000000000E+01 0. -1.
<mgrwt>
<rscale>  0 0.27490339E+03</rscale>
<asrwt>0</asrwt>
<pdfrwt beam="1">  1        1 0.31151000E+00 0.27490339E+03</pdfrwt>
<pdfrwt beam="2">  1       -1 0.14354944E-02 0.27490339E+03</pdfrwt>
<totfact> 0.36172647E+03</totfact>
</mgrwt>
</event>
<event>
 9    1  0.2098759E-002  0.2745420E+03  0.7818608E-02  0.1098708E+00
         -1   -1    0    0    0  501 -0.00000000000E+00  0.00000000000E+00  0.20536893184E+02  0.20536893184E+02  0.00000000000E+00 0. -1.
          1   -1    0    0  501    0  0.00000000000E+00 -0.00000000000E+00 -0.91753543763E+03  0.91753543763E+03  0.00000000000E+00 0. -1.
         36    2    1    2    0    0  0.00000000000E+00  0.00000000000E+00 -0.89699854444E+03  0.93807233081E+03  0.27454199879E+03 0.  0.
         25    2    3    3    0    0  0.26038843875E+02  0.64164250157E+02 -0.41174046720E+03  0.43398260710E+03  0.11838757767E+03 0.  0.
         25    2    3    3    0    0 -0.26038843875E+02 -0.64164250157E+02 -0.48525807724E+03  0.50408972371E+03  0.11762642404E+03 0.  0.
          5    1    4    4  502    0  0.62910944800E+01  0.63915801542E+02 -0.85134555149E+02  0.10674638184E+03  0.47000000000E+01 0.  1.
         -5    1    4    4    0  502  0.19747749395E+02  0.24844861491E+00 -0.32660591205E+03  0.32723622526E+03  0.47000000000E+01 0.  1.
          5    1    5    5  503    0  0.21556058292E+02 -0.81627204274E+02 -0.27210695311E+03  0.28494200824E+03  0.47000000000E+01 0.  1.
         -5    1    5    5    0  503 -0.47594902167E+02  0.17462954117E+02 -0.21315112413E+03  0.21914771547E+03  0.47000000000E+01 0.  1.
<mgrwt>
<rscale>  0 0.27454200E+03</rscale>
<asrwt>0</asrwt>
<pdfrwt beam="1">  1        1 0.14115928E+00 0.27454200E+03</pdfrwt>
<pdfrwt beam="2">  1       -1 0.31595224E-02 0.27454200E+03</pdfrwt>
<totfact> 0.64549910E+03</totfact>
</mgrwt>
</event>
<event>
 9    1  0.2098759E-002  0.2738745E+03  0.7818608E-02  0.1099082E+00
         -2   -1    0    0    0  501 -0.00000000000E+00  0.00000000000E+00  0.19034046154E+03  0.19034046154E+03  0.00000000000E+00 0.  1.
          2   -1    0    0  501    0  0.00000000000E+00 -0.00000000000E+00 -0.98517191398E+02  0.98517191398E+02  0.00000000000E+00 0.  1.
         36    2    1    2    0    0  0.17763568394E-14  0.35527136788E-14  0.91823270147E+02  0.28885765294E+03  0.27387447987E+03 0.  0.
         25    2    3    3    0    0  0.12465068540E+02 -0.31593846131E+02  0.65411513196E+02  0.14552203545E+03  0.12547688112E+03 0.  0.
         25    2    3    3    0    0 -0.12465068540E+02  0.31593846131E+02  0.26411756951E+02  0.14333561750E+03  0.13672589108E+03 0.  0.
          5    1    4    4  502    0  0.63704956962E+01 -0.79874146136E+02  0.48548347842E+02  0.93805620911E+02  0.47000000000E+01 0.  1.
         -5    1    4    4    0  502  0.60945728438E+01  0.48280300005E+02  0.16863165354E+02  0.51716414536E+02  0.47000000000E+01 0.  1.
          5    1    5    5  503    0 -0.14539468181E+02  0.39565252322E+02 -0.50439331893E+02  0.65901604898E+02  0.47000000000E+01 0.  1.
         -5    1    5    5    0  503  0.20743996409E+01 -0.79714061911E+01  0.76851088844E+02  0.77434012598E+02  0.47000000000E+01 0.  1.
<mgrwt>
<rscale>  0 0.27387448E+03</rscale>
<asrwt>0</asrwt>
<pdfrwt beam="1">  1        2 0.15156491E-01 0.27387448E+03</pdfrwt>
<pdfrwt beam="2">  1       -2 0.29283148E-01 0.27387448E+03</pdfrwt>
<totfact> 0.40899237E+03</totfact>
</mgrwt>
</event>
<event>
 9    1  0.2098759E-002  0.2747787E+03  0.7818608E-02  0.1098575E+00
          2   -1    0    0  501    0  0.00000000000E+00  0.00000000000E+00  0.51482668729E+02  0.51482668729E+02  0.00000000000E+00 0.  1.
         -2   -1    0    0    0  501 -0.00000000000E+00 -0.00000000000E+00 -0.36664429259E+03  0.36664429259E+03  0.00000000000E+00 0.  1.
         36    2    1    2    0    0  0.71054273576E-14  0.00000000000E+00 -0.31516162386E+03  0.41812696132E+03  0.27477865024E+03 0.  0.
         25    2    3    3    0    0 -0.45526374084E+02 -0.32368802516E+02 -0.19091429045E+03  0.23323501887E+03  0.12177814916E+03 0.  0.
         25    2    3    3    0    0  0.45526374084E+02  0.32368802516E+02 -0.12424733341E+03  0.18489194245E+03  0.12500896132E+03 0.  0.
          5    1    4    4  502    0  0.11156330896E+02 -0.59995905674E+02 -0.50899202396E+02  0.79603964858E+02  0.47000000000E+01 0.  1.
         -5    1    4    4    0  502 -0.56682704980E+02  0.27627103158E+02 -0.14001508806E+03  0.15363105401E+03  0.47000000000E+01 0.  1.
          5    1    5    5  503    0  0.49310626381E+02 -0.28686274610E+02 -0.10669181360E+03  0.12107713787E+03  0.47000000000E+01 0. -1.
         -5    1    5    5    0  503 -0.37842522975E+01  0.61055077125E+02 -0.17555519810E+02  0.63814804584E+02  0.47000000000E+01 0. -1.
<mgrwt>
<rscale>  0 0.27477865E+03</rscale>
<asrwt>0</asrwt>
<pdfrwt beam="1">  1        2 0.79204107E-02 0.27477865E+03</pdfrwt>
<pdfrwt beam="2">  1       -2 0.56406814E-01 0.27477865E+03</pdfrwt>
<totfact> 0.25806127E+03</totfact>
</mgrwt>
</event>
<event>
 9    1  0.2098759E-002  0.2633054E+03  0.7818608E-02  0.1105173E+00
          1   -1    0    0  501    0  0.00000000000E+00  0.00000000000E+00  0.30331789520E+03  0.30331789520E+03  0.00000000000E+00 0.  1.
         -1   -1    0    0    0  501 -0.00000000000E+00 -0.00000000000E+00 -0.57142790253E+02  0.57142790253E+02  0.00000000000E+00 0.  1.
         36    2    1    2    0    0 -0.71054273576E-14  0.00000000000E+00  0.24617510495E+03  0.36046068545E+03  0.26330538062E+03 0.  0.
         25    2    3    3    0    0 -0.13657096034E+02  0.60217787822E+01  0.58720228445E+02  0.13896934210E+03  0.12506652119E+03 0.  0.
         25    2    3    3    0    0  0.13657096034E+02 -0.60217787822E+01  0.18745487650E+03  0.22149134336E+03  0.11703121962E+03 0.  0.
          5    1    4    4  502    0  0.50904662948E+02 -0.21698776363E+02  0.25861757716E+02  0.61262077321E+02  0.47000000000E+01 0.  1.
         -5    1    4    4    0  502 -0.64561758983E+02  0.27720555146E+02  0.32858470729E+02  0.77707264777E+02  0.47000000000E+01 0.  1.
          5    1    5    5  503    0 -0.51795958539E+02  0.85221079074E-01  0.79038187502E+02  0.94614764530E+02  0.47000000000E+01 0. -1.
         -5    1    5    5    0  503  0.65453054573E+02 -0.61069998613E+01  0.10841668900E+03  0.12687657883E+03  0.47000000000E+01 0. -1.
<mgrwt>
<rscale>  0 0.26330538E+03</rscale>
<asrwt>0</asrwt>
<pdfrwt beam="1">  1        1 0.46664291E-01 0.26330538E+03</pdfrwt>
<pdfrwt beam="2">  1       -1 0.87911987E-02 0.26330538E+03</pdfrwt>
<totfact> 0.63733984E+03</totfact>
</mgrwt>
</event>
<event>
 9    1  0.2098759E-002  0.2754204E+03  0.7818608E-02  0.1098217E+00
          2   -1    0    0  501    0  0.00000000000E+00  0.00000000000E+00  0.50146105534E+02  0.50146105534E+02  0.00000000000E+00 0. -1.
         -2   -1    0    0    0  501 -0.00000000000E+00 -0.00000000000E+00 -0.37817679877E+03  0.37817679877E+03  0.00000000000E+00 0. -1.
         36    2    1    2    0    0  0.00000000000E+00 -0.71054273576E-14 -0.32803069324E+03  0.42832290431E+03  0.27542035990E+03 0.  0.
         25    2    3    3    0    0 -0.27680810459E+02  0.51448034230E+02 -0.17316645390E+03  0.22233392855E+03  0.12662001238E+03 0.  0.
         25    2    3    3    0    0  0.27680810459E+02 -0.51448034230E+02 -0.15486423934E+03  0.20598897576E+03  0.12261891377E+03 0.  0.
          5    1    4    4  502    0 -0.52585157005E+02 -0.73728065909E+01 -0.21102663184E+02  0.57332097535E+02  0.47000000000E+01 0. -1.
         -5    1    4    4    0  502  0.24904346547E+02  0.58820840821E+02 -0.15206379071E+03  0.16500183101E+03  0.47000000000E+01 0. -1.
          5    1    5    5  503    0 -0.26661344439E+02  0.30619604219E+01 -0.11690721352E+03  0.12003994944E+03  0.47000000000E+01 0. -1.
         -5    1    5    5    0  503  0.54342154897E+02 -0.54509994652E+02 -0.37957025826E+02  0.85949026321E+02  0.47000000000E+01 0. -1.
<mgrwt>
<rscale>  0 0.27542036E+03</rscale>
<asrwt>0</asrwt>
<pdfrwt beam="1">  1        2 0.77147853E-02 0.27542036E+03</pdfrwt>
<pdfrwt beam="2">  1       -2 0.58181047E-01 0.27542036E+03</pdfrwt>
<totfact> 0.25044711E+03</totfact>
</mgrwt>
</event>
<event>
 9    1  0.2098759E-002  0.2792403E+03  0.7818608E-02  0.1096105E+00
         -2   -1    0    0    0  501 -0.00000000000E+00  0.00000000000E+00  0.60457293545E+02  0.60457293545E+02  0.00000000000E+00 0. -1.
          2   -1    0    0  501    0  0.00000000000E+00 -0.00000000000E+00 -0.32243902739E+03  0.32243902739E+03  0.00000000000E+00 0. -1.
         36    2    1    2    0    0  0.00000000000E+00  0.00000000000E+00 -0.26198173384E+03  0.38289632093E+03  0.27924033326E+03 0.  0.
         25    2    3    3    0    0 -0.48543575857E+02 -0.22362289646E+02 -0.15039010774E+03  0.20492396491E+03  0.12853052608E+03 0.  0.
         25    2    3    3    0    0  0.48543575857E+02  0.22362289646E+02 -0.11159162610E+03  0.17797235602E+03  0.12792543819E+03 0.  0.
          5    1    4    4  502    0 -0.35020294786E+02 -0.69405309506E+02 -0.48393360621E+02  0.91692559059E+02  0.47000000000E+01 0. -1.
         -5    1    4    4    0  502 -0.13523281071E+02  0.47043019860E+02 -0.10199674712E+03  0.11323140585E+03  0.47000000000E+01 0. -1.
          5    1    5    5  503    0 -0.25632534578E+02  0.59209001061E+01 -0.96807401739E+02  0.10042831731E+03  0.47000000000E+01 0.  1.
         -5    1    5    5    0  503  0.74176110436E+02  0.16441389540E+02 -0.14784224366E+02  0.77544038710E+02  0.47000000000E+01 0.  1.
<mgrwt>
<rscale>  0 0.27924033E+03</rscale>
<asrwt>0</asrwt>
<pdfrwt beam="1">  1        2 0.49606003E-01 0.27924033E+03</pdfrwt>
<pdfrwt beam="2">  1       -2 0.93011223E-02 0.27924033E+03</pdfrwt>
<totfact> 0.74812312E+03</totfact>
</mgrwt>
</event>
<event>
 9    1  0.2098759E-002  0.2744766E+03  0.7818608E-02  0.1098745E+00
         -2   -1    0    0    0  501 -0.00000000000E+00  0.00000000000E+00  0.21228406948E+04  0.21228406948E+04  0.00000000000E+00 0. -1.
          2   -1    0    0  501    0  0.00000000000E+00 -0.00000000000E+00 -0.88722391858E+01  0.88722391858E+01  0.00000000000E+00 0. -1.
         36    2    1    2    0    0  0.71054273576E-14  0.00000000000E+00  0.21139684556E+04  0.21317129340E+04  0.27447659571E+03 0.  0.
         25    2    3    3    0    0  0.32012639716E+02  0.18436005517E+02  0.13581353811E+04  0.13644420418E+04  0.12572062935E+03 0.  0.
         25    2    3    3    0    0 -0.32012639716E+02 -0.18436005517E+02  0.75583307460E+03  0.76727089227E+03  0.12671341705E+03 0.  0.
          5    1    4    4  502    0  0.27907370505E+02  0.14455132533E+02  0.77192935930E+02  0.83478209986E+02  0.47000000000E+01 0. -1.
         -5    1    4    4    0  502  0.41052692106E+01  0.39808729840E+01  0.12809424451E+04  0.12809638318E+04  0.47000000000E+01 0. -1.
          5    1    5    5  503    0 -0.57291058074E+02 -0.31917731699E+02  0.19696944816E+03  0.20765370317E+03  0.47000000000E+01 0.  1.
         -5    1    5    5    0  503  0.25278418358E+02  0.13481726182E+02  0.55886362643E+03  0.55961718909E+03  0.47000000000E+01 0.  1.
<mgrwt>
<rscale>  0 0.27447660E+03</rscale>
<asrwt>0</asrwt>
<pdfrwt beam="1">  1        2 0.13649616E-02 0.27447660E+03</pdfrwt>
<pdfrwt beam="2">  1       -2 0.32659047E+00 0.27447660E+03</pdfrwt>
<totfact> 0.23792022E+02</totfact>
</mgrwt>
</event>
<event>
 9    1  0.2098759E-002  0.2756817E+03  0.7818608E-02  0.1098071E+00
          2   -1    0    0  501    0  0.00000000000E+00  0.00000000000E+00  0.13384043801E+03  0.13384043801E+03  0.00000000000E+00 0.  1.
         -2   -1    0    0    0  501 -0.00000000000E+00 -0.00000000000E+00 -0.14196088332E+03  0.14196088332E+03  0.00000000000E+00 0.  1.
         36    2    1    2    0    0 -0.71054273576E-14  0.00000000000E+00 -0.81204453098E+01  0.27580132132E+03  0.27568174987E+03 0.  0.
         25    2    3    3    0    0  0.16745223060E+02  0.31871580918E+02  0.38089271471E+02  0.13605693156E+03  0.12555674358E+03 0.  0.
         25    2    3    3    0    0 -0.16745223060E+02 -0.31871580918E+02 -0.46209716781E+02  0.13974438977E+03  0.12687378130E+03 0.  0.
          5    1    4    4  502    0  0.70268684106E+02  0.15613280209E+02  0.34073243406E+02  0.79778057141E+02  0.47000000000E+01 0. -1.
         -5    1    4    4    0  502 -0.53523461046E+02  0.16258300709E+02  0.40160280646E+01  0.56278874418E+02  0.47000000000E+01 0. -1.
          5    1    5    5  503    0  0.10423941181E+01  0.48844292791E+02 -0.18253851788E+02  0.52365490820E+02  0.47000000000E+01 0.  1.
         -5    1    5    5    0  503 -0.17787617178E+02 -0.80715873709E+02 -0.27955864993E+02  0.87378898946E+02  0.47000000000E+01 0.  1.
<mgrwt>
<rscale>  0 0.27568175E+03</rscale>
<asrwt>0</asrwt>
<pdfrwt beam="1">  1        2 0.20590837E-01 0.27568175E+03</pdfrwt>
<pdfrwt beam="2">  1       -2 0.21840136E-01 0.27568175E+03</pdfrwt>
<totfact> 0.48120902E+03</totfact>
</mgrwt>
</event>
<event>
 8    1  0.2098759E-002  0.2948660E+03  0.7818608E-02  0.1087836E+00
          1   -1    0    0  501    0  0.00000000000E+00  0.00000000000E+00  0.17474670523E+04  0.17474670523E+04  0.00000000000E+00 0.  1.
         -1   -1    0    0    0  501 -0.00000000000E+00 -0.00000000000E+00 -0.12438858081E+02  0.12438858081E+02  0.00000000000E+00 0.  1.
         25    2    1    2    0    0 -0.52298503626E+02 -0.50221292682E+01  0.44010633628E+03  0.46097080508E+03  0.12664967681E+03 0.  0.
         25    2    1    2    0    0  0.52298503626E+02  0.50221292682E+01  0.12949218580E+04  0.12989351053E+04  0.87461044774E+02 0.  0.
          5    1    3    3  502    0  0.42822005338E+01  0.25137400010E+02  0.12912027026E+02  0.28966127849E+02  0.47000000000E+01 0. -1.
         -5    1    3    3    0  502 -0.56580704160E+02 -0.30159529278E+02  0.42719430925E+03  0.43200467723E+03  0.47000000000E+01 0. -1.
          5    1    4    4  503    0  0.37760426591E+02 -0.15394684788E+02  0.22526745852E+03  0.22897677612E+03  0.47000000000E+01 0. -1.
         -5    1    4    4    0  503  0.14538077035E+02  0.20416814057E+02  0.10696543994E+04  0.10699583292E+04  0.47000000000E+01 0. -1.
<mgrwt>
<rscale>  0 0.29486604E+03</rscale>
<asrwt>0</asrwt>
<pdfrwt beam="1">  1        1 0.26884089E+00 0.29486604E+03</pdfrwt>
<pdfrwt beam="2">  1       -1 0.19136719E-02 0.29486604E+03</pdfrwt>
<totfact> 0.36010563E+03</totfact>
</mgrwt>
</event>
<event>
 9    1  0.2098759E-002  0.2801044E+03  0.7818608E-02  0.1095632E+00
          2   -1    0    0  501    0  0.00000000000E+00  0.00000000000E+00  0.37665462635E+03  0.37665462635E+03  0.00000000000E+00 0. -1.
         -2   -1    0    0    0  501 -0.00000000000E+00 -0.00000000000E+00 -0.52075865027E+02  0.52075865027E+02  0.00000000000E+00 0. -1.
         36    2    1    2    0    0 -0.35527136788E-14  0.00000000000E+00  0.32457876132E+03  0.42873049138E+03  0.28010437686E+03 0.  0.
         25    2    3    3    0    0  0.14505954853E+02 -0.21113258313E+02  0.79205704425E+02  0.15249534030E+03  0.12776968653E+03 0.  0.
         25    2    3    3    0    0 -0.14505954853E+02  0.21113258313E+02  0.24537305690E+03  0.27623515108E+03  0.12426475461E+03 0.  0.
          5    1    4    4  502    0  0.12880521119E+02  0.29929499858E+02  0.93606992504E+02  0.99227223239E+02  0.47000000000E+01 0.  1.
         -5    1    4    4    0  502  0.16254337343E+01 -0.51042758171E+02 -0.14401288079E+02  0.53268117057E+02  0.47000000000E+01 0.  1.
          5    1    5    5  503    0 -0.55194340588E+02 -0.50525319252E+01  0.20690257453E+03  0.21424917423E+03  0.47000000000E+01 0. -1.
         -5    1    5    5    0  503  0.40688385735E+02  0.26165790238E+02  0.38470482372E+02  0.61985976853E+02  0.47000000000E+01 0. -1.
<mgrwt>
<rscale>  0 0.28010438E+03</rscale>
<asrwt>0</asrwt>
<pdfrwt beam="1">  1        2 0.57946864E-01 0.28010438E+03</pdfrwt>
<pdfrwt beam="2">  1       -2 0.80116718E-02 0.28010438E+03</pdfrwt>
<totfact> 0.79982353E+03</totfact>
</mgrwt>
</event>
<event>
 9    1  0.2098759E-002  0.2745215E+03  0.7818608E-02  0.1098719E+00
          2   -1    0    0  501    0  0.00000000000E+00  0.00000000000E+00  0.67594554178E+03  0.67594554178E+03  0.00000000000E+00 0.  1.
         -2   -1    0    0    0  501 -0.00000000000E+00 -0.00000000000E+00 -0.27872834921E+02  0.27872834921E+02  0.00000000000E+00 0.  1.
         36    2    1    2    0    0 -0.17763568394E-14 -0.35527136788E-14  0.64807270686E+03  0.70381837670E+03  0.27452153651E+03 0.  0.
         25    2    3    3    0    0  0.14709481368E+02 -0.10305643424E+02  0.18942649455E+03  0.22744061302E+03  0.12459639035E+03 0.  0.
         25    2    3    3    0    0 -0.14709481368E+02  0.10305643424E+02  0.45864621231E+03  0.47637776367E+03  0.12750235498E+03 0.  0.
          5    1    4    4  502    0 -0.42074319562E+02 -0.31460532255E+02  0.13830418756E+03  0.14802078149E+03  0.47000000000E+01 0. -1.
         -5    1    4    4    0  502  0.56783800930E+02  0.21154888831E+02  0.51122306984E+02  0.79419831534E+02  0.47000000000E+01 0. -1.
          5    1    5    5  503    0 -0.13618219677E+02 -0.44835411617E+02  0.36161755680E+03  0.36467110858E+03  0.47000000000E+01 0.  1.
         -5    1    5    5    0  503 -0.10912616910E+01  0.55141055042E+02  0.97028655511E+02  0.11170665510E+03  0.47000000000E+01 0.  1.
<mgrwt>
<rscale>  0 0.27452154E+03</rscale>
<asrwt>0</asrwt>
<pdfrwt beam="1">  1        2 0.10399161E+00 0.27452154E+03</pdfrwt>
<pdfrwt beam="2">  1       -2 0.42881289E-02 0.27452154E+03</pdfrwt>
<totfact> 0.10780820E+04</totfact>
</mgrwt>
</event>
<event>
 9    1  0.2098759E-002  0.2746437E+03  0.7818608E-02  0.1098651E+00
          1   -1    0    0  501    0  0.00000000000E+00  0.00000000000E+00  0.25786027570E+03  0.25786027570E+03  0.00000000000E+00 0. -1.
         -1   -1    0    0    0  501 -0.00000000000E+00 -0.00000000000E+00 -0.73129860548E+02  0.73129860548E+02  0.00000000000E+00 0. -1.
         36    2    1    2    0    0 -0.71054273576E-14  0.00000000000E+00  0.18473041515E+03  0.33099013625E+03  0.27464366734E+03 0.  0.
         25    2    3    3    0    0 -0.33925384858E+02 -0.30549142479E+02  0.51830596348E+02  0.14113586472E+03  0.12308021672E+03 0.  0.
         25    2    3    3    0    0  0.33925384858E+02  0.30549142479E+02  0.13289981880E+03  0.18985427153E+03  0.12766401504E+03 0.  0.
          5    1    4    4  502    0  0.27074751516E+02 -0.37687978026E+02 -0.16188297281E+02  0.49371822189E+02  0.47000000000E+01 0.  1.
         -5    1    4    4    0  502 -0.61000136374E+02  0.71388355473E+01  0.68018893629E+02  0.91764042528E+02  0.47000000000E+01 0.  1.
          5    1    5    5  503    0  0.13188729410E+02 -0.46522973578E+02  0.81259333199E+02  0.94675756591E+02  0.47000000000E+01 0. -1.
         -5    1    5    5    0  503  0.20736655447E+02  0.77072116057E+02  0.51640485605E+02  0.95178514940E+02  0.47000000000E+01 0. -1.
<mgrwt>
<rscale>  0 0.27464367E+03</rscale>
<asrwt>0</asrwt>
<pdfrwt beam="1">  1        1 0.39670811E-01 0.27464367E+03</pdfrwt>
<pdfrwt beam="2">  1       -1 0.11250748E-01 0.27464367E+03</pdfrwt>
<totfact> 0.53460340E+03</totfact>
</mgrwt>
</event>
<event>
 9    1  0.2098759E-002  0.2765914E+03  0.7818608E-02  0.1097565E+00
          2   -1    0    0  501    0  0.00000000000E+00  0.00000000000E+00  0.13551308139E+03  0.13551308139E+03  0.00000000000E+00 0. -1.
         -2   -1    0    0    0  501 -0.00000000000E+00 -0.00000000000E+00 -0.14113541510E+03  0.14113541510E+03  0.00000000000E+00 0. -1.
         36    2    1    2    0    0  0.00000000000E+00  0.00000000000E+00 -0.56223337101E+01  0.27664849649E+03  0.27659135918E+03 0.  0.
         25    2    3    3    0    0 -0.37761156431E+02 -0.16197084963E+02  0.87267175404E+01  0.14363792332E+03  0.13735882542E+03 0.  0.
         25    2    3    3    0    0  0.37761156431E+02  0.16197084963E+02 -0.14349051250E+02  0.13301057317E+03  0.12568876961E+03 0.  0.
          5    1    4    4  502    0 -0.48008799177E+02 -0.30833730871E+02 -0.53724627071E+02  0.78511077637E+02  0.47000000000E+01 0. -1.
         -5    1    4    4    0  502  0.10247642746E+02  0.14636645908E+02  0.62451344611E+02  0.65126845686E+02  0.47000000000E+01 0. -1.
          5    1    5    5  503    0  0.60039385058E+02  0.15380628111E+01 -0.56708760355E+02  0.82734919450E+02  0.47000000000E+01 0. -1.
         -5    1    5    5    0  503 -0.22278228627E+02  0.14659022152E+02  0.42359709105E+02  0.50275653717E+02  0.47000000000E+01 0. -1.
<mgrwt>
<rscale>  0 0.27659136E+03</rscale>
<asrwt>0</asrwt>
<pdfrwt beam="1">  1        2 0.20848166E-01 0.27659136E+03</pdfrwt>
<pdfrwt beam="2">  1       -2 0.21713141E-01 0.27659136E+03</pdfrwt>
<totfact> 0.47930637E+03</totfact>
</mgrwt>
</event>
<event>
 9    1  0.2098759E-002  0.2757383E+03  0.7818608E-02  0.1098040E+00
         -2   -1    0    0    0  501 -0.00000000000E+00  0.00000000000E+00  0.15999184530E+03  0.15999184530E+03  0.00000000000E+00 0. -1.
          2   -1    0    0  501    0  0.00000000000E+00 -0.00000000000E+00 -0.11880545043E+03  0.11880545043E+03  0.00000000000E+00 0. -1.
         36    2    1    2    0    0  0.00000000000E+00  0.00000000000E+00  0.41186394865E+02  0.27879729573E+03  0.27573830526E+03 0.  0.
         25    2    3    3    0    0 -0.44467668548E+02 -0.34807907133E+02  0.29525618900E+02  0.13859926225E+03  0.12308139331E+03 0.  0.
         25    2    3    3    0    0  0.44467668548E+02  0.34807907133E+02  0.11660775965E+02  0.14019803349E+03  0.12779104410E+03 0.  0.
          5    1    4    4  502    0 -0.49657318812E+02 -0.80117932428E+01 -0.39562661480E+02  0.64166442366E+02  0.47000000000E+01 0.  1.
         -5    1    4    4    0  502  0.51896502644E+01 -0.26796113890E+02  0.69088280380E+02  0.74432819880E+02  0.47000000000E+01 0.  1.
          5    1    5    5  503    0  0.76138718095E+02 -0.17306700055E+02  0.11288389943E+02  0.79032550303E+02  0.47000000000E+01 0. -1.
         -5    1    5    5    0  503 -0.31671049547E+02  0.52114607187E+02  0.37238602226E+00  0.61165483183E+02  0.47000000000E+01 0. -1.
<mgrwt>
<rscale>  0 0.27573831E+03</rscale>
<asrwt>0</asrwt>
<pdfrwt beam="1">  1        2 0.18277762E-01 0.27573831E+03</pdfrwt>
<pdfrwt beam="2">  1       -2 0.24614130E-01 0.27573831E+03</pdfrwt>
<totfact> 0.44789345E+03</totfact>
</mgrwt>
</event>
<event>
 9    1  0.2098759E-002  0.2736617E+03  0.7818608E-02  0.1099202E+00
         -1   -1    0    0    0  501 -0.00000000000E+00  0.00000000000E+00  0.10987654106E+03  0.10987654106E+03  0.00000000000E+00 0.  1.
          1   -1    0    0  501    0  0.00000000000E+00 -0.00000000000E+00 -0.17039740004E+03  0.17039740004E+03  0.00000000000E+00 0.  1.
         36    2    1    2    0    0  0.71054273576E-14 -0.35527136788E-14 -0.60520858979E+02  0.28027394111E+03  0.27366166647E+03 0.  0.
         25    2    3    3    0    0 -0.26417557020E+02  0.30039851984E+02 -0.80562386578E+02  0.15256564579E+03  0.12323026462E+03 0.  0.
         25    2    3    3    0    0  0.26417557020E+02 -0.30039851984E+02  0.20041527599E+02  0.12770829532E+03  0.11961381960E+03 0.  0.
          5    1    4    4  502    0  0.49450627300E+02  0.84325571424E+01 -0.27789262364E+02  0.57539600824E+02  0.47000000000E+01 0.  1.
         -5    1    4    4    0  502 -0.75868184320E+02  0.21607294842E+02 -0.52773124214E+02  0.95026044965E+02  0.47000000000E+01 0.  1.
          5    1    5    5  503    0  0.48111486369E+02  0.18913657180E+02  0.44763940589E+02  0.68544452187E+02  0.47000000000E+01 0. -1.
         -5    1    5    5    0  503 -0.21693929349E+02 -0.48953509165E+02 -0.24722412990E+02  0.59163843133E+02  0.47000000000E+01 0. -1.
<mgrwt>
<rscale>  0 0.27366167E+03</rscale>
<asrwt>0</asrwt>
<pdfrwt beam="1">  1        1 0.26214985E-01 0.27366167E+03</pdfrwt>
<pdfrwt beam="2">  1       -1 0.16904083E-01 0.27366167E+03</pdfrwt>
<totfact> 0.47399736E+03</totfact>
</mgrwt>
</event>
<event>
 9    1  0.2098759E-002  0.2732736E+03  0.7818608E-02  0.1099421E+00
         -1   -1    0    0    0  501 -0.00000000000E+00  0.00000000000E+00  0.24087249497E+02  0.24087249497E+02  0.00000000000E+00 0. -1.
          1   -1    0    0  501    0  0.00000000000E+00 -0.00000000000E+00 -0.77508314451E+03  0.77508314451E+03  0.00000000000E+00 0. -1.
         36    2    1    2    0    0  0.00000000000E+00  0.35527136788E-14 -0.75099589502E+03  0.79917039401E+03  0.27327364368E+03 0.  0.
         25    2    3    3    0    0  0.31158298855E+02  0.10621583044E+02 -0.47799792236E+03  0.49844469671E+03  0.13740976780E+03 0.  0.
         25    2    3    3    0    0 -0.31158298855E+02 -0.10621583044E+02 -0.27299797266E+03  0.30072569730E+03  0.12175546939E+03 0.  0.
          5    1    4    4  502    0  0.32527390491E+02 -0.18364756076E+02 -0.26615593651E+02  0.46106129997E+02  0.47000000000E+01 0.  1.
         -5    1    4    4    0  502 -0.13690916357E+01  0.28986339120E+02 -0.45138232870E+03  0.45233856671E+03  0.47000000000E+01 0.  1.
          5    1    5    5  503    0 -0.43557533792E+02 -0.40856848438E+02 -0.58600998524E+02  0.83801598089E+02  0.47000000000E+01 0.  1.
         -5    1    5    5    0  503  0.12399234937E+02  0.30235265394E+02 -0.21439697414E+03  0.21692409921E+03  0.47000000000E+01 0.  1.
<mgrwt>
<rscale>  0 0.27327364E+03</rscale>
<asrwt>0</asrwt>
<pdfrwt beam="1">  1        1 0.11924358E+00 0.27327364E+03</pdfrwt>
<pdfrwt beam="2">  1       -1 0.37057302E-02 0.27327364E+03</pdfrwt>
<totfact> 0.66524758E+03</totfact>
</mgrwt>
</event>
<event>
 9    1  0.2098759E-002  0.2747339E+03  0.7818608E-02  0.1098600E+00
          1   -1    0    0  501    0  0.00000000000E+00  0.00000000000E+00  0.95658411141E+03  0.95658411141E+03  0.00000000000E+00 0.  1.
         -1   -1    0    0    0  501 -0.00000000000E+00 -0.00000000000E+00 -0.19726111987E+02  0.19726111987E+02  0.00000000000E+00 0.  1.
         36    2    1    2    0    0  0.71054273576E-14  0.71054273576E-14  0.93685799943E+03  0.97631022340E+03  0.27473394626E+03 0.  0.
         25    2    3    3    0    0  0.32317939544E+02 -0.10057310458E+01  0.66288074350E+03  0.67518011277E+03  0.12414444763E+03 0.  0.
         25    2    3    3    0    0 -0.32317939544E+02  0.10057310458E+01  0.27397725593E+03  0.30113011063E+03  0.12070768843E+03 0.  0.
          5    1    4    4  502    0  0.40258247745E+02 -0.53726875788E+02  0.47777404470E+03  0.48249086155E+03  0.47000000000E+01 0. -1.
         -5    1    4    4    0  502 -0.79403082016E+01  0.52721144742E+02  0.18510669880E+03  0.19268925122E+03  0.47000000000E+01 0. -1.
          5    1    5    5  503    0 -0.67178068599E+02  0.34976716853E+02  0.15868129612E+03  0.17589231751E+03  0.47000000000E+01 0.  1.
         -5    1    5    5    0  503  0.34860129055E+02 -0.33970985807E+02  0.11529595982E+03  0.12523779311E+03  0.47000000000E+01 0.  1.
<mgrwt>
<rscale>  0 0.27473395E+03</rscale>
<asrwt>0</asrwt>
<pdfrwt beam="1">  1        1 0.14716675E+00 0.27473395E+03</pdfrwt>
<pdfrwt beam="2">  1       -1 0.30347872E-02 0.27473395E+03</pdfrwt>
<totfact> 0.63920363E+03</totfact>
</mgrwt>
</event>
<event>
 9    1  0.2098759E-002  0.2753307E+03  0.7818608E-02  0.1098267E+00
          1   -1    0    0  501    0  0.00000000000E+00  0.00000000000E+00  0.18745584657E+04  0.18745584657E+04  0.00000000000E+00 0.  1.
         -1   -1    0    0    0  501 -0.00000000000E+00 -0.00000000000E+00 -0.10109976893E+02  0.10109976893E+02  0.00000000000E+00 0.  1.
         36    2    1    2    0    0  0.35527136788E-14  0.00000000000E+00  0.18644484888E+04  0.18846684426E+04  0.27533065774E+03 0.  0.
         25    2    3    3    0    0  0.90750680906E+01  0.42824391660E+02  0.68768968217E+03  0.70034084689E+03  0.12507564702E+03 0.  0.
         25    2    3    3    0    0 -0.90750680906E+01 -0.42824391660E+02  0.11767588066E+04  0.11843275957E+04  0.12631025123E+03 0.  0.
          5    1    4    4  502    0  0.38721453453E+02  0.69422276426E+02  0.29330484150E+03  0.30392206809E+03  0.47000000000E+01 0.  1.
         -5    1    4    4    0  502 -0.29646385362E+02 -0.26597884766E+02  0.39438484066E+03  0.39641877880E+03  0.47000000000E+01 0.  1.
          5    1    5    5  503    0  0.23325365639E+01 -0.86486869653E+02  0.67922269452E+03  0.68472693689E+03  0.47000000000E+01 0.  1.
         -5    1    5    5    0  503 -0.11407604655E+02  0.43662477993E+02  0.49753611212E+03  0.49960065882E+03  0.47000000000E+01 0.  1.
<mgrwt>
<rscale>  0 0.27533066E+03</rscale>
<asrwt>0</asrwt>
<pdfrwt beam="1">  1        1 0.28839333E+00 0.27533066E+03</pdfrwt>
<pdfrwt beam="2">  1       -1 0.15553825E-02 0.27533066E+03</pdfrwt>
<totfact> 0.40292252E+03</totfact>
</mgrwt>
</event>
<event>
 9    1  0.2098759E-002  0.2743103E+03  0.7818608E-02  0.1098838E+00
         -4   -1    0    0    0  501 -0.00000000000E+00  0.00000000000E+00  0.29257807063E+02  0.29257807063E+02  0.00000000000E+00 0. -1.
          4   -1    0    0  501    0  0.00000000000E+00 -0.00000000000E+00 -0.64295794387E+03  0.64295794387E+03  0.00000000000E+00 0. -1.
         36    2    1    2    0    0  0.00000000000E+00 -0.71054273576E-14 -0.61370013681E+03  0.67221575094E+03  0.27431033135E+03 0.  0.
         25    2    3    3    0    0 -0.42185561855E+02  0.30809355066E+02 -0.31274939216E+03  0.34042974090E+03  0.12390071916E+03 0.  0.
         25    2    3    3    0    0  0.42185561855E+02 -0.30809355066E+02 -0.30095074466E+03  0.33178601004E+03  0.12954446248E+03 0.  0.
          5    1    4    4  502    0  0.31167290731E+02 -0.62855304678E+01 -0.23837532832E+02  0.40015320519E+02  0.47000000000E+01 0.  1.
         -5    1    4    4    0  502 -0.73352852586E+02  0.37094885533E+02 -0.28891185932E+03  0.30041442038E+03  0.47000000000E+01 0.  1.
          5    1    5    5  503    0  0.79435419131E+02 -0.19107510834E+02 -0.11157275678E+03  0.13836781720E+03  0.47000000000E+01 0.  1.
         -5    1    5    5    0  503 -0.37249857276E+02 -0.11701844231E+02 -0.18937798788E+03  0.19341819283E+03  0.47000000000E+01 0.  1.
<mgrwt>
<rscale>  0 0.27431033E+03</rscale>
<asrwt>0</asrwt>
<pdfrwt beam="1">  1        4 0.98916599E-01 0.27431033E+03</pdfrwt>
<pdfrwt beam="2">  1       -4 0.45012014E-02 0.27431033E+03</pdfrwt>
<totfact> 0.46397855E+02</totfact>
</mgrwt>
</event>
<event>
 9    1  0.2098759E-002  0.2764745E+03  0.7818608E-02  0.1097630E+00
         -2   -1    0    0    0  501 -0.00000000000E+00  0.00000000000E+00  0.10078807090E+02  0.10078807090E+02  0.00000000000E+00 0.  1.
          2   -1    0    0  501    0  0.00000000000E+00 -0.00000000000E+00 -0.18960113015E+04  0.18960113015E+04  0.00000000000E+00 0.  1.
         36    2    1    2    0    0  0.71054273576E-14  0.00000000000E+00 -0.18859324944E+04  0.19060901086E+04  0.27647446283E+03 0.  0.
         25    2    3    3    0    0 -0.55406555766E+02  0.30385723358E+02 -0.82196204841E+03  0.83282460427E+03  0.11824565048E+03 0.  0.
         25    2    3    3    0    0  0.55406555766E+02 -0.30385723358E+02 -0.10639704460E+04  0.10732655043E+04  0.12598632537E+03 0.  0.
          5    1    4    4  502    0 -0.21044572254E+02  0.66773000788E+02 -0.64671840329E+03  0.65051386674E+03  0.47000000000E+01 0.  1.
         -5    1    4    4    0  502 -0.34361983512E+02 -0.36387277430E+02 -0.17524364511E+03  0.18231073754E+03  0.47000000000E+01 0.  1.
          5    1    5    5  503    0 -0.33914623683E+02 -0.24897432432E+01 -0.12487668733E+03  0.12950937248E+03  0.47000000000E+01 0. -1.
         -5    1    5    5    0  503  0.89321179449E+02 -0.27895980115E+02 -0.93909375864E+03  0.94375613181E+03  0.47000000000E+01 0. -1.
<mgrwt>
<rscale>  0 0.27647446E+03</rscale>
<asrwt>0</asrwt>
<pdfrwt beam="1">  1        2 0.29169422E+00 0.27647446E+03</pdfrwt>
<pdfrwt beam="2">  1       -2 0.15505848E-02 0.27647446E+03</pdfrwt>
<totfact> 0.94704773E+03</totfact>
</mgrwt>
</event>
<event>
 9    1  0.2098759E-002  0.2771092E+03  0.7818608E-02  0.1097278E+00
          2   -1    0    0  501    0  0.00000000000E+00  0.00000000000E+00  0.19207797170E+04  0.19207797170E+04  0.00000000000E+00 0.  1.
         -2   -1    0    0    0  501 -0.00000000000E+00 -0.00000000000E+00 -0.99945728661E+01  0.99945728661E+01  0.00000000000E+00 0.  1.
         36    2    1    2    0    0  0.71054273576E-14  0.00000000000E+00  0.19107851441E+04  0.19307742899E+04  0.27710916868E+03 0.  0.
         25    2    3    3    0    0  0.18127594682E+02  0.11075754959E+01  0.13820396816E+04  0.13872713905E+04  0.11898904534E+03 0.  0.
         25    2    3    3    0    0 -0.18127594682E+02 -0.11075754959E+01  0.52874546254E+03  0.54350289939E+03  0.12447409803E+03 0.  0.
          5    1    4    4  502    0 -0.42492958042E+02 -0.29287298303E+02  0.53196054624E+03  0.53447872744E+03  0.47000000000E+01 0. -1.
         -5    1    4    4    0  502  0.60620552724E+02  0.30394873798E+02  0.85007913535E+03  0.85279266304E+03  0.47000000000E+01 0. -1.
          5    1    5    5  503    0  0.52980079190E+01 -0.19557804726E+02  0.86425077953E+01  0.22524643274E+02  0.47000000000E+01 0.  1.
         -5    1    5    5    0  503 -0.23425602601E+02  0.18450229230E+02  0.52010295475E+03  0.52097825612E+03  0.47000000000E+01 0.  1.
<mgrwt>
<rscale>  0 0.27710917E+03</rscale>
<asrwt>0</asrwt>
<pdfrwt beam="1">  1        2 0.29550428E+00 0.27710917E+03</pdfrwt>
<pdfrwt beam="2">  1       -2 0.15376281E-02 0.27710917E+03</pdfrwt>
<totfact> 0.93049145E+03</totfact>
</mgrwt>
</event>
<event>
 9    1  0.2098759E-002  0.2750883E+03  0.7818608E-02  0.1098402E+00
          1   -1    0    0  501    0  0.00000000000E+00  0.00000000000E+00  0.23953197073E+03  0.23953197073E+03  0.00000000000E+00 0. -1.
         -1   -1    0    0    0  501 -0.00000000000E+00 -0.00000000000E+00 -0.78980688076E+02  0.78980688076E+02  0.00000000000E+00 0. -1.
         36    2    1    2    0    0  0.71054273576E-14  0.00000000000E+00  0.16055128266E+03  0.31851265881E+03  0.27508834846E+03 0.  0.
         25    2    3    3    0    0  0.25342385615E+02 -0.44727310650E+02  0.76618487987E+02  0.15596068399E+03  0.12574010269E+03 0.  0.
         25    2    3    3    0    0 -0.25342385615E+02  0.44727310650E+02  0.83932794672E+02  0.16255197482E+03  0.12936638539E+03 0.  0.
          5    1    4    4  502    0  0.75607946257E+02 -0.33564221762E+02  0.57415860324E+02  0.10080570190E+03  0.47000000000E+01 0.  1.
         -5    1    4    4    0  502 -0.50265560642E+02 -0.11163088887E+02  0.19202627662E+02  0.55154982089E+02  0.47000000000E+01 0.  1.
          5    1    5    5  503    0 -0.73328431142E+02  0.39248930317E+02  0.26617916820E+02  0.87453649670E+02  0.47000000000E+01 0. -1.
         -5    1    5    5    0  503  0.47986045527E+02  0.54783803325E+01  0.57314877852E+02  0.75098325145E+02  0.47000000000E+01 0. -1.
<mgrwt>
<rscale>  0 0.27508835E+03</rscale>
<asrwt>0</asrwt>
<pdfrwt beam="1">  1        1 0.36851072E-01 0.27508835E+03</pdfrwt>
<pdfrwt beam="2">  1       -1 0.12150875E-01 0.27508835E+03</pdfrwt>
<totfact> 0.52014685E+03</totfact>
</mgrwt>
</event>
<event>
 9    1  0.2098759E-002  0.2756425E+03  0.7818608E-02  0.1098093E+00
          2   -1    0    0  501    0  0.00000000000E+00  0.00000000000E+00  0.20250076905E+03  0.20250076905E+03  0.00000000000E+00 0. -1.
         -2   -1    0    0    0  501 -0.00000000000E+00 -0.00000000000E+00 -0.93800620969E+02  0.93800620969E+02  0.00000000000E+00 0. -1.
         36    2    1    2    0    0  0.00000000000E+00 -0.17763568394E-14  0.10870014808E+03  0.29630139002E+03  0.27564250677E+03 0.  0.
         25    2    3    3    0    0  0.84056688855E+01  0.37570591460E+01  0.10727302575E+03  0.16704723241E+03  0.12772041747E+03 0.  0.
         25    2    3    3    0    0 -0.84056688855E+01 -0.37570591460E+01  0.14271223293E+01  0.12925415761E+03  0.12891791892E+03 0.  0.
          5    1    4    4  502    0 -0.48460932863E+02  0.24461558013E+02  0.14853208612E+02  0.56475991718E+02  0.47000000000E+01 0. -1.
         -5    1    4    4    0  502  0.56866601749E+02 -0.20704498867E+02  0.92419817142E+02  0.11057124069E+03  0.47000000000E+01 0. -1.
          5    1    5    5  503    0 -0.18333195701E+02 -0.14973287055E+02  0.62078344088E+02  0.66604175504E+02  0.47000000000E+01 0.  1.
         -5    1    5    5    0  503  0.99275268156E+01  0.11216227909E+02 -0.60651221759E+02  0.62649982107E+02  0.47000000000E+01 0.  1.
<mgrwt>
<rscale>  0 0.27564251E+03</rscale>
<asrwt>0</asrwt>
<pdfrwt beam="1">  1        2 0.31153964E-01 0.27564251E+03</pdfrwt>
<pdfrwt beam="2">  1       -2 0.14430865E-01 0.27564251E+03</pdfrwt>
<totfact> 0.60944243E+03</totfact>
</mgrwt>
</event>
<event>
 9    1  0.2098759E-002  0.2793808E+03  0.7818608E-02  0.1096028E+00
         -3   -1    0    0    0  501 -0.00000000000E+00  0.00000000000E+00  0.57392081307E+02  0.57392081307E+02  0.00000000000E+00 0. -1.
          3   -1    0    0  501    0  0.00000000000E+00 -0.00000000000E+00 -0.34000178230E+03  0.34000178230E+03  0.00000000000E+00 0. -1.
         36    2    1    2    0    0  0.00000000000E+00 -0.71054273576E-14 -0.28260970100E+03  0.39739386361E+03  0.27938081491E+03 0.  0.
         25    2    3    3    0    0 -0.60575976968E+02 -0.11277736685E+00 -0.15603345170E+03  0.20975416748E+03  0.12641562807E+03 0.  0.
         25    2    3    3    0    0  0.60575976968E+02  0.11277736685E+00 -0.12657624929E+03  0.18763969613E+03  0.12456984777E+03 0.  0.
          5    1    4    4  502    0 -0.41395849610E+02  0.30091622874E+02 -0.18735947653E+01  0.51426865445E+02  0.47000000000E+01 0.  1.
         -5    1    4    4    0  502 -0.19180127358E+02 -0.30204400241E+02 -0.15415985694E+03  0.15832730204E+03  0.47000000000E+01 0.  1.
          5    1    5    5  503    0  0.38148570357E+02  0.56406297238E+02 -0.32406884679E+02  0.75559777415E+02  0.47000000000E+01 0.  1.
         -5    1    5    5    0  503  0.22427406611E+02 -0.56293519871E+02 -0.94169364615E+02  0.11207991871E+03  0.47000000000E+01 0.  1.
<mgrwt>
<rscale>  0 0.27938081E+03</rscale>
<asrwt>0</asrwt>
<pdfrwt beam="1">  1        3 0.52307965E-01 0.27938081E+03</pdfrwt>
<pdfrwt beam="2">  1       -3 0.88295513E-02 0.27938081E+03</pdfrwt>
<totfact> 0.84265234E+02</totfact>
</mgrwt>
</event>
<event>
 9    1  0.2098759E-002  0.2758414E+03  0.7818608E-02  0.1097982E+00
         -1   -1    0    0    0  501 -0.00000000000E+00  0.00000000000E+00  0.18593171097E+02  0.18593171097E+02  0.00000000000E+00 0. -1.
          1   -1    0    0  501    0  0.00000000000E+00 -0.00000000000E+00 -0.10230703884E+04  0.10230703884E+04  0.00000000000E+00 0. -1.
         36    2    1    2    0    0  0.35527136788E-14  0.71054273576E-14 -0.10044772173E+04  0.10416635595E+04  0.27584142384E+03 0.  0.
         25    2    3    3    0    0 -0.17783859912E+02  0.27629172269E+02 -0.65711593837E+03  0.67009752229E+03  0.12708145454E+03 0.  0.
         25    2    3    3    0    0  0.17783859912E+02 -0.27629172269E+02 -0.34736127896E+03  0.37156603723E+03  0.12775689833E+03 0.  0.
          5    1    4    4  502    0  0.11884112257E+02 -0.41549567113E+02 -0.39385348793E+03  0.39624520010E+03  0.47000000000E+01 0.  1.
         -5    1    4    4    0  502 -0.29667972170E+02  0.69178739382E+02 -0.26326245044E+03  0.27385232219E+03  0.47000000000E+01 0.  1.
          5    1    5    5  503    0  0.17694613761E+02 -0.49361171469E+02 -0.47581322897E+02  0.70962644353E+02  0.47000000000E+01 0. -1.
         -5    1    5    5    0  503  0.89246150631E-01  0.21731999200E+02 -0.29977995606E+03  0.30060339288E+03  0.47000000000E+01 0. -1.
<mgrwt>
<rscale>  0 0.27584142E+03</rscale>
<asrwt>0</asrwt>
<pdfrwt beam="1">  1        1 0.15739546E+00 0.27584142E+03</pdfrwt>
<pdfrwt beam="2">  1       -1 0.28604876E-02 0.27584142E+03</pdfrwt>
<totfact> 0.62167041E+03</totfact>
</mgrwt>
</event>
<event>
 9    1  0.2098759E-002  0.2746770E+03  0.7818608E-02  0.1098632E+00
         -2   -1    0    0    0  501 -0.00000000000E+00  0.00000000000E+00  0.31648600182E+02  0.31648600182E+02  0.00000000000E+00 0.  1.
          2   -1    0    0  501    0  0.00000000000E+00 -0.00000000000E+00 -0.59597784544E+03  0.59597784544E+03  0.00000000000E+00 0.  1.
         36    2    1    2    0    0  0.00000000000E+00  0.00000000000E+00 -0.56432924525E+03  0.62762644562E+03  0.27467700703E+03 0.  0.
         25    2    3    3    0    0 -0.48871171049E+02  0.65181589636E+00 -0.25570855148E+03  0.29080050178E+03  0.12957334724E+03 0.  0.
         25    2    3    3    0    0  0.48871171049E+02 -0.65181589636E+00 -0.30862069378E+03  0.33682594383E+03  0.12576234567E+03 0.  0.
          5    1    4    4  502    0 -0.44009945224E+02 -0.53654174244E+02 -0.76361758103E+02  0.10329014374E+03  0.47000000000E+01 0.  1.
         -5    1    4    4    0  502 -0.48612258255E+01  0.54305990141E+02 -0.17934679338E+03  0.18751035805E+03  0.47000000000E+01 0.  1.
          5    1    5    5  503    0  0.20592516807E+02 -0.62015640385E+02 -0.12529982260E+03  0.14139351804E+03  0.47000000000E+01 0. -1.
         -5    1    5    5    0  503  0.28278654242E+02  0.61363824489E+02 -0.18332087118E+03  0.19543242579E+03  0.47000000000E+01 0. -1.
<mgrwt>
<rscale>  0 0.27467701E+03</rscale>
<asrwt>0</asrwt>
<pdfrwt beam="1">  1        2 0.91688900E-01 0.27467701E+03</pdfrwt>
<pdfrwt beam="2">  1       -2 0.48690154E-02 0.27467701E+03</pdfrwt>
<totfact> 0.10319263E+04</totfact>
</mgrwt>
</event>
<event>
 9    1  0.2098759E-002  0.2738729E+03  0.7818608E-02  0.1099083E+00
         -1   -1    0    0    0  501 -0.00000000000E+00  0.00000000000E+00  0.40388678844E+03  0.40388678844E+03  0.00000000000E+00 0. -1.
          1   -1    0    0  501    0  0.00000000000E+00 -0.00000000000E+00 -0.46427839881E+02  0.46427839881E+02  0.00000000000E+00 0. -1.
         36    2    1    2    0    0 -0.10658141036E-13  0.71054273576E-14  0.35745894855E+03  0.45031462832E+03  0.27387289857E+03 0.  0.
         25    2    3    3    0    0  0.24805328915E+02 -0.33216126101E+02  0.26483524927E+03  0.29559850137E+03  0.12458791828E+03 0.  0.
         25    2    3    3    0    0 -0.24805328915E+02  0.33216126101E+02  0.92623699282E+02  0.15471612694E+03  0.11678747746E+03 0.  0.
          5    1    4    4  502    0  0.31995397176E+02 -0.76624673792E+02  0.13642475550E+03  0.15977750150E+03  0.47000000000E+01 0.  1.
         -5    1    4    4    0  502 -0.71900682615E+01  0.43408547691E+02  0.12841049377E+03  0.13582099987E+03  0.47000000000E+01 0.  1.
          5    1    5    5  503    0  0.27977673194E+02 -0.13802753722E+02  0.75507375159E+02  0.81833488934E+02  0.47000000000E+01 0.  1.
         -5    1    5    5    0  503 -0.52783002109E+02  0.47018879823E+02  0.17116324123E+02  0.72882638008E+02  0.47000000000E+01 0.  1.
<mgrwt>
<rscale>  0 0.27387290E+03</rscale>
<asrwt>0</asrwt>
<pdfrwt beam="1">  1        1 0.71427449E-02 0.27387290E+03</pdfrwt>
<pdfrwt beam="2">  1       -1 0.62136427E-01 0.27387290E+03</pdfrwt>
<totfact> 0.27495598E+03</totfact>
</mgrwt>
</event>
<event>
 9    1  0.2098759E-002  0.2752860E+03  0.7818608E-02  0.1098292E+00
          1   -1    0    0  501    0  0.00000000000E+00  0.00000000000E+00  0.12858192672E+03  0.12858192672E+03  0.00000000000E+00 0.  1.
         -1   -1    0    0    0  501 -0.00000000000E+00 -0.00000000000E+00 -0.14734264810E+03  0.14734264810E+03  0.00000000000E+00 0.  1.
         36    2    1    2    0    0 -0.88817841970E-15  0.71054273576E-14 -0.18760721384E+02  0.27592457482E+03  0.27528604455E+03 0.  0.
         25    2    3    3    0    0 -0.22875154733E+01 -0.50890654286E+02 -0.40917025362E+02  0.14185024231E+03  0.12590550765E+03 0.  0.
         25    2    3    3    0    0  0.22875154733E+01  0.50890654286E+02  0.22156303978E+02  0.13407433251E+03  0.12202431484E+03 0.  0.
          5    1    4    4  502    0 -0.63882106971E+02 -0.26442219981E+02 -0.23428409496E+02  0.73151178801E+02  0.47000000000E+01 0.  1.
         -5    1    4    4    0  502  0.61594591497E+02 -0.24448434305E+02 -0.17488615866E+02  0.68699063506E+02  0.47000000000E+01 0.  1.
          5    1    5    5  503    0 -0.64828842772E+01  0.85948048451E+02 -0.81130383343E+01  0.86700670194E+02  0.47000000000E+01 0.  1.
         -5    1    5    5    0  503  0.87703997506E+01 -0.35057394165E+02  0.30269342312E+02  0.47373662318E+02  0.47000000000E+01 0.  1.
<mgrwt>
<rscale>  0 0.27528604E+03</rscale>
<asrwt>0</asrwt>
<pdfrwt beam="1">  1        1 0.19781835E-01 0.27528604E+03</pdfrwt>
<pdfrwt beam="2">  1       -1 0.22668100E-01 0.27528604E+03</pdfrwt>
<totfact> 0.42217862E+03</totfact>
</mgrwt>
</event>
<event>
 9    1  0.2098759E-002  0.2750997E+03  0.7818608E-02  0.1098396E+00
         -3   -1    0    0    0  501 -0.00000000000E+00  0.00000000000E+00  0.16324615880E+02  0.16324615880E+02  0.00000000000E+00 0.  1.
          3   -1    0    0  501    0  0.00000000000E+00 -0.00000000000E+00 -0.11589838415E+04  0.11589838415E+04  0.00000000000E+00 0.  1.
         36    2    1    2    0    0 -0.35527136788E-14 -0.71054273576E-14 -0.11426592257E+04  0.11753084574E+04  0.27509973482E+03 0.  0.
         25    2    3    3    0    0  0.84071581347E+01 -0.16271822982E+02 -0.79884929625E+03  0.80876924645E+03  0.12494816268E+03 0.  0.
         25    2    3    3    0    0 -0.84071581347E+01  0.16271822982E+02 -0.34380992942E+03  0.36653921098E+03  0.12573890840E+03 0.  0.
          5    1    4    4  502    0  0.13178377023E+02 -0.21045116048E+02 -0.27395339170E+02  0.37271452061E+02  0.47000000000E+01 0. -1.
         -5    1    4    4    0  502 -0.47712188886E+01  0.47732930661E+01 -0.77145395708E+03  0.77149779439E+03  0.47000000000E+01 0. -1.
          5    1    5    5  503    0  0.39960820485E+02 -0.28488105922E+02 -0.22744380041E+03  0.23272561461E+03  0.47000000000E+01 0. -1.
         -5    1    5    5    0  503 -0.48367978619E+02  0.44759928904E+02 -0.11636612901E+03  0.13381359637E+03  0.47000000000E+01 0. -1.
<mgrwt>
<rscale>  0 0.27509973E+03</rscale>
<asrwt>0</asrwt>
<pdfrwt beam="1">  1        3 0.17830519E+00 0.27509973E+03</pdfrwt>
<pdfrwt beam="2">  1       -3 0.25114797E-02 0.27509973E+03</pdfrwt>
<totfact> 0.37321492E+02</totfact>
</mgrwt>
</event>
<event>
 9    1  0.2098759E-002  0.2741091E+03  0.7818608E-02  0.1098951E+00
          2   -1    0    0  501    0  0.00000000000E+00  0.00000000000E+00  0.25086540744E+03  0.25086540744E+03  0.00000000000E+00 0.  1.
         -2   -1    0    0    0  501 -0.00000000000E+00 -0.00000000000E+00 -0.74876621283E+02  0.74876621283E+02  0.00000000000E+00 0.  1.
         36    2    1    2    0    0 -0.35527136788E-14  0.71054273576E-14  0.17598878616E+03  0.32574202872E+03  0.27410913232E+03 0.  0.
         25    2    3    3    0    0  0.58080247949E+01 -0.51091942802E+02  0.63542906967E+02  0.14957662464E+03  0.12526510225E+03 0.  0.
         25    2    3    3    0    0 -0.58080247949E+01  0.51091942802E+02  0.11244587919E+03  0.17616540408E+03  0.12548328207E+03 0.  0.
          5    1    4    4  502    0 -0.17053605100E+02  0.38578795223E+02  0.24705706791E+02  0.49108154474E+02  0.47000000000E+01 0.  1.
         -5    1    4    4    0  502  0.22861629895E+02 -0.89670738025E+02  0.38837200176E+02  0.10046847016E+03  0.47000000000E+01 0.  1.
          5    1    5    5  503    0 -0.33169205627E+02  0.42922182323E+02  0.13094835099E+03  0.14181703199E+03  0.47000000000E+01 0. -1.
         -5    1    5    5    0  503  0.27361180833E+02  0.81697604793E+01 -0.18502471796E+02  0.34348372093E+02  0.47000000000E+01 0. -1.
<mgrwt>
<rscale>  0 0.27410913E+03</rscale>
<asrwt>0</asrwt>
<pdfrwt beam="1">  1        2 0.38594678E-01 0.27410913E+03</pdfrwt>
<pdfrwt beam="2">  1       -2 0.11519480E-01 0.27410913E+03</pdfrwt>
<totfact> 0.69649578E+03</totfact>
</mgrwt>
</event>
<event>
 9    1  0.2098759E-002  0.2751263E+03  0.7818608E-02  0.1098381E+00
         -1   -1    0    0    0  501 -0.00000000000E+00  0.00000000000E+00  0.45055906045E+02  0.45055906045E+02  0.00000000000E+00 0. -1.
          1   -1    0    0  501    0  0.00000000000E+00 -0.00000000000E+00 -0.42000313529E+03  0.42000313529E+03  0.00000000000E+00 0. -1.
         36    2    1    2    0    0  0.00000000000E+00  0.00000000000E+00 -0.37494722924E+03  0.46505904133E+03  0.27512631137E+03 0.  0.
         25    2    3    3    0    0  0.32963608379E+02 -0.39383687999E+02 -0.21420861541E+03  0.25495853737E+03  0.12837776484E+03 0.  0.
         25    2    3    3    0    0 -0.32963608379E+02  0.39383687999E+02 -0.16073861383E+03  0.21010050396E+03  0.12517046549E+03 0.  0.
          5    1    4    4  502    0  0.28376902165E+02 -0.19081232441E+02  0.48560980296E+01  0.34857046576E+02  0.47000000000E+01 0. -1.
         -5    1    4    4    0  502  0.45867062140E+01 -0.20302455558E+02 -0.21906471344E+03  0.22010149080E+03  0.47000000000E+01 0. -1.
          5    1    5    5  503    0  0.34378757348E+02 -0.16253777278E+02 -0.89245093687E+02  0.97122916862E+02  0.47000000000E+01 0. -1.
         -5    1    5    5    0  503 -0.67342365727E+02  0.55637465277E+02 -0.71493520145E+02  0.11297758710E+03  0.47000000000E+01 0. -1.
<mgrwt>
<rscale>  0 0.27512631E+03</rscale>
<asrwt>0</asrwt>
<pdfrwt beam="1">  1        1 0.64615869E-01 0.27512631E+03</pdfrwt>
<pdfrwt beam="2">  1       -1 0.69316776E-02 0.27512631E+03</pdfrwt>
<totfact> 0.60650532E+03</totfact>
</mgrwt>
</event>
<event>
 9    1  0.2098759E-002  0.2787543E+03  0.7818608E-02  0.1096371E+00
         -1   -1    0    0    0  501 -0.00000000000E+00  0.00000000000E+00  0.20992584359E+03  0.20992584359E+03  0.00000000000E+00 0. -1.
          1   -1    0    0  501    0  0.00000000000E+00 -0.00000000000E+00 -0.92537381445E+02  0.92537381445E+02  0.00000000000E+00 0. -1.
         36    2    1    2    0    0  0.21316282073E-13 -0.17763568394E-14  0.11738846214E+03  0.30246322503E+03  0.27875428508E+03 0.  0.
         25    2    3    3    0    0  0.51109545178E+02 -0.57273871885E+01  0.27888349770E+02  0.13886132216E+03  0.12593537298E+03 0.  0.
         25    2    3    3    0    0 -0.51109545178E+02  0.57273871885E+01  0.89500112372E+02  0.16360190287E+03  0.12692645089E+03 0.  0.
          5    1    4    4  502    0 -0.95799038048E+01  0.10226766444E+02 -0.42173617525E+02  0.44688536830E+02  0.47000000000E+01 0. -1.
         -5    1    4    4    0  502  0.60689448983E+02 -0.15954153633E+02  0.70061967295E+02  0.94172785332E+02  0.47000000000E+01 0. -1.
          5    1    5    5  503    0 -0.70278308200E+02  0.28718818337E+02  0.10492881873E+03  0.12959922118E+03  0.47000000000E+01 0. -1.
         -5    1    5    5    0  503  0.19168763022E+02 -0.22991431148E+02 -0.15428706362E+02  0.34002681689E+02  0.47000000000E+01 0. -1.
<mgrwt>
<rscale>  0 0.27875429E+03</rscale>
<asrwt>0</asrwt>
<pdfrwt beam="1">  1        1 0.14236520E-01 0.27875429E+03</pdfrwt>
<pdfrwt beam="2">  1       -1 0.32296284E-01 0.27875429E+03</pdfrwt>
<totfact> 0.35769929E+03</totfact>
</mgrwt>
</event>
<event>
 9    1  0.2098759E-002  0.2755046E+03  0.7818608E-02  0.1098170E+00
          3   -1    0    0  501    0  0.00000000000E+00  0.00000000000E+00  0.19473328034E+03  0.19473328034E+03  0.00000000000E+00 0. -1.
         -3   -1    0    0    0  501 -0.00000000000E+00 -0.00000000000E+00 -0.97444536445E+02  0.97444536445E+02  0.00000000000E+00 0. -1.
         36    2    1    2    0    0  0.00000000000E+00  0.00000000000E+00  0.97288743897E+02  0.29217781679E+03  0.27550458605E+03 0.  0.
         25    2    3    3    0    0 -0.95343271475E+01  0.55019631615E+02  0.26608285571E+02  0.13712309375E+03  0.12237924138E+03 0.  0.
         25    2    3    3    0    0  0.95343271475E+01 -0.55019631615E+02  0.70680458326E+02  0.15505472304E+03  0.12620688052E+03 0.  0.
          5    1    4    4  502    0  0.46197149083E+02  0.60646507368E+02  0.38505752810E+01  0.76479359106E+02  0.47000000000E+01 0.  1.
         -5    1    4    4    0  502 -0.55731476231E+02 -0.56268757524E+01  0.22757710290E+02  0.60643734641E+02  0.47000000000E+01 0.  1.
          5    1    5    5  503    0 -0.44743969690E+02 -0.35289234531E+02 -0.75787126924E+01  0.57679110460E+02  0.47000000000E+01 0.  1.
         -5    1    5    5    0  503  0.54278296838E+02 -0.19730397084E+02  0.78259171018E+02  0.97375612579E+02  0.47000000000E+01 0.  1.
<mgrwt>
<rscale>  0 0.27550459E+03</rscale>
<asrwt>0</asrwt>
<pdfrwt beam="1">  1        3 0.29958966E-01 0.27550459E+03</pdfrwt>
<pdfrwt beam="2">  1       -3 0.14991467E-01 0.27550459E+03</pdfrwt>
<totfact> 0.10173917E+03</totfact>
</mgrwt>
</event>
<event>
 9    1  0.2098759E-002  0.2756858E+03  0.7818608E-02  0.1098069E+00
         -3   -1    0    0    0  501 -0.00000000000E+00  0.00000000000E+00  0.24478509226E+02  0.24478509226E+02  0.00000000000E+00 0.  1.
          3   -1    0    0  501    0  0.00000000000E+00 -0.00000000000E+00 -0.77621849434E+03  0.77621849434E+03  0.00000000000E+00 0.  1.
         36    2    1    2    0    0  0.00000000000E+00  0.71054273576E-14 -0.75173998511E+03  0.80069700357E+03  0.27568584711E+03 0.  0.
         25    2    3    3    0    0 -0.18107339975E+02 -0.55756395833E+02 -0.37011705269E+03  0.39462572901E+03  0.12371815496E+03 0.  0.
         25    2    3    3    0    0  0.18107339975E+02  0.55756395833E+02 -0.38162293243E+03  0.40607127456E+03  0.12578221667E+03 0.  0.
          5    1    4    4  502    0  0.23933630774E+02 -0.82996607665E+02 -0.24059551191E+03  0.25567468768E+03  0.47000000000E+01 0.  1.
         -5    1    4    4    0  502 -0.42040970749E+02  0.27240211833E+02 -0.12952154077E+03  0.13895104133E+03  0.47000000000E+01 0.  1.
          5    1    5    5  503    0 -0.12855632390E+02  0.89270995482E+02 -0.28775990338E+03  0.30159978433E+03  0.47000000000E+01 0.  1.
         -5    1    5    5    0  503  0.30962972366E+02 -0.33514599649E+02 -0.93863029052E+02  0.10447149023E+03  0.47000000000E+01 0.  1.
<mgrwt>
<rscale>  0 0.27568585E+03</rscale>
<asrwt>0</asrwt>
<pdfrwt beam="1">  1        3 0.11941824E+00 0.27568585E+03</pdfrwt>
<pdfrwt beam="2">  1       -3 0.37659243E-02 0.27568585E+03</pdfrwt>
<totfact> 0.54312272E+02</totfact>
</mgrwt>
</event>
<event>
 9    1  0.2098759E-002  0.2754506E+03  0.7818608E-02  0.1098200E+00
         -2   -1    0    0    0  501 -0.00000000000E+00  0.00000000000E+00  0.10207888763E+03  0.10207888763E+03  0.00000000000E+00 0. -1.
          2   -1    0    0  501    0  0.00000000000E+00 -0.00000000000E+00 -0.18581961328E+03  0.18581961328E+03  0.00000000000E+00 0. -1.
         36    2    1    2    0    0  0.00000000000E+00  0.00000000000E+00 -0.83740725659E+02  0.28789850091E+03  0.27545060844E+03 0.  0.
         25    2    3    3    0    0 -0.41484697141E+02  0.13457747610E+02 -0.85364604104E+02  0.15556038855E+03  0.12251460234E+03 0.  0.
         25    2    3    3    0    0  0.41484697141E+02 -0.13457747610E+02  0.16238784446E+01  0.13233811236E+03  0.12493457461E+03 0.  0.
          5    1    4    4  502    0 -0.30360041376E+02 -0.48687576553E+02 -0.69590543077E+02  0.90316919283E+02  0.47000000000E+01 0. -1.
         -5    1    4    4    0  502 -0.11124655764E+02  0.62145324164E+02 -0.15774061027E+02  0.65243469271E+02  0.47000000000E+01 0. -1.
          5    1    5    5  503    0  0.92517307043E+01 -0.35709304557E+02 -0.53131609488E+02  0.64852192560E+02  0.47000000000E+01 0.  1.
         -5    1    5    5    0  503  0.32232966436E+02  0.22251556947E+02  0.54755487933E+02  0.67485919795E+02  0.47000000000E+01 0.  1.
<mgrwt>
<rscale>  0 0.27545061E+03</rscale>
<asrwt>0</asrwt>
<pdfrwt beam="1">  1        2 0.28587633E-01 0.27545061E+03</pdfrwt>
<pdfrwt beam="2">  1       -2 0.15704444E-01 0.27545061E+03</pdfrwt>
<totfact> 0.58238376E+03</totfact>
</mgrwt>
</event>
<event>
 9    1  0.2098759E-002  0.2800661E+03  0.7818608E-02  0.1095653E+00
          1   -1    0    0  501    0  0.00000000000E+00  0.00000000000E+00  0.34929185301E+03  0.34929185301E+03  0.00000000000E+00 0. -1.
         -1   -1    0    0    0  501 -0.00000000000E+00 -0.00000000000E+00 -0.56140041209E+02  0.56140041209E+02  0.00000000000E+00 0. -1.
         36    2    1    2    0    0 -0.71054273576E-14  0.71054273576E-14  0.29315181180E+03  0.40543189422E+03  0.28006612806E+03 0.  0.
         25    2    3    3    0    0  0.36656087535E+01  0.31663778361E+02  0.23240151257E+03  0.26473223814E+03  0.12270559611E+03 0.  0.
         25    2    3    3    0    0 -0.36656087535E+01 -0.31663778361E+02  0.60750299231E+02  0.14069965608E+03  0.12284039571E+03 0.  0.
          5    1    4    4  502    0  0.55549758091E+02 -0.13593180355E+02  0.11587444999E+03  0.12930401516E+03  0.47000000000E+01 0. -1.
         -5    1    4    4    0  502 -0.51884149337E+02  0.45256958717E+02  0.11652706258E+03  0.13542822298E+03  0.47000000000E+01 0. -1.
          5    1    5    5  503    0  0.46208983391E+02 -0.52810821487E+02  0.47072801270E+02  0.84629732550E+02  0.47000000000E+01 0. -1.
         -5    1    5    5    0  503 -0.49874592145E+02  0.21147043126E+02  0.13677497961E+02  0.56069923533E+02  0.47000000000E+01 0. -1.
<mgrwt>
<rscale>  0 0.28006613E+03</rscale>
<asrwt>0</asrwt>
<pdfrwt beam="1">  1        1 0.53737207E-01 0.28006613E+03</pdfrwt>
<pdfrwt beam="2">  1       -1 0.86369296E-02 0.28006613E+03</pdfrwt>
<totfact> 0.54916770E+03</totfact>
</mgrwt>
</event>
<event>
 9    1  0.2098759E-002  0.2750299E+03  0.7818608E-02  0.1098435E+00
         -2   -1    0    0    0  501 -0.00000000000E+00  0.00000000000E+00  0.19460158333E+03  0.19460158333E+03  0.00000000000E+00 0.  1.
          2   -1    0    0  501    0  0.00000000000E+00 -0.00000000000E+00 -0.97174771537E+02  0.97174771537E+02  0.00000000000E+00 0.  1.
         36    2    1    2    0    0 -0.71054273576E-14  0.71054273576E-14  0.97426811791E+02  0.29177635486E+03  0.27502992128E+03 0.  0.
         25    2    3    3    0    0 -0.26300784916E+02 -0.40546540377E+02  0.19993299637E+02  0.13627197969E+03  0.12583547669E+03 0.  0.
         25    2    3    3    0    0  0.26300784916E+02  0.40546540377E+02  0.77433512153E+02  0.15550437517E+03  0.12589642040E+03 0.  0.
          5    1    4    4  502    0  0.15185566438E+02  0.40004824946E+02 -0.13420249569E+01  0.43068300152E+02  0.47000000000E+01 0.  1.
         -5    1    4    4    0  502 -0.41486351354E+02 -0.80551365323E+02  0.21335324594E+02  0.93203679539E+02  0.47000000000E+01 0.  1.
          5    1    5    5  503    0  0.37972466920E+02 -0.54444719636E+01 -0.22541577873E+02  0.44741068963E+02  0.47000000000E+01 0.  1.
         -5    1    5    5    0  503 -0.11671682004E+02  0.45991012341E+02  0.99975090026E+02  0.11076330621E+03  0.47000000000E+01 0.  1.
<mgrwt>
<rscale>  0 0.27502992E+03</rscale>
<asrwt>0</asrwt>
<pdfrwt beam="1">  1        2 0.14949965E-01 0.27502992E+03</pdfrwt>
<pdfrwt beam="2">  1       -2 0.29938705E-01 0.27502992E+03</pdfrwt>
<totfact> 0.39940165E+03</totfact>
</mgrwt>
</event>
<event>
 9    1  0.2098759E-002  0.2736898E+03  0.7818608E-02  0.1099186E+00
         -3   -1    0    0    0  501 -0.00000000000E+00  0.00000000000E+00  0.87298150617E+02  0.87298150617E+02  0.00000000000E+00 0. -1.
          3   -1    0    0  501    0  0.00000000000E+00 -0.00000000000E+00 -0.21451234323E+03  0.21451234323E+03  0.00000000000E+00 0. -1.
         36    2    1    2    0    0  0.00000000000E+00  0.00000000000E+00 -0.12721419261E+03  0.30181049385E+03  0.27368983064E+03 0.  0.
         25    2    3    3    0    0  0.48284391708E+02  0.13335191218E+02 -0.82444691393E+02  0.15788174786E+03  0.12498123603E+03 0.  0.
         25    2    3    3    0    0 -0.48284391708E+02 -0.13335191218E+02 -0.44769501222E+02  0.14392874599E+03  0.12728694307E+03 0.  0.
          5    1    4    4  502    0  0.23976370261E+02  0.67864885454E+02 -0.29435642982E+02  0.77904146785E+02  0.47000000000E+01 0. -1.
         -5    1    4    4    0  502  0.24308021447E+02 -0.54529694235E+02 -0.53009048411E+02  0.79977601074E+02  0.47000000000E+01 0. -1.
          5    1    5    5  503    0  0.13628811653E+02 -0.44441764161E+02 -0.56693880978E+02  0.73464964774E+02  0.47000000000E+01 0.  1.
         -5    1    5    5    0  503 -0.61913203361E+02  0.31106572943E+02  0.11924379756E+02  0.70463781216E+02  0.47000000000E+01 0.  1.
<mgrwt>
<rscale>  0 0.27368983E+03</rscale>
<asrwt>0</asrwt>
<pdfrwt beam="1">  1        3 0.33001899E-01 0.27368983E+03</pdfrwt>
<pdfrwt beam="2">  1       -3 0.13430485E-01 0.27368983E+03</pdfrwt>
<totfact> 0.10239591E+03</totfact>
</mgrwt>
</event>
<event>
 9    1  0.2098759E-002  0.2773881E+03  0.7818608E-02  0.1097124E+00
         -1   -1    0    0    0  501 -0.00000000000E+00  0.00000000000E+00  0.15818024139E+02  0.15818024139E+02  0.00000000000E+00 0. -1.
          1   -1    0    0  501    0  0.00000000000E+00 -0.00000000000E+00 -0.12160837306E+04  0.12160837306E+04  0.00000000000E+00 0. -1.
         36    2    1    2    0    0  0.00000000000E+00  0.00000000000E+00 -0.12002657065E+04  0.12319017547E+04  0.27738811658E+03 0.  0.
         25    2    3    3    0    0 -0.18253566565E+02 -0.24794680386E+02 -0.82403404340E+03  0.83404976084E+03  0.12513564646E+03 0.  0.
         25    2    3    3    0    0  0.18253566565E+02  0.24794680386E+02 -0.37623166307E+03  0.39785199390E+03  0.12565021245E+03 0.  0.
          5    1    4    4  502    0 -0.44399811556E+02 -0.44548940877E+02 -0.75347861590E+03  0.75611379172E+03  0.47000000000E+01 0.  1.
         -5    1    4    4    0  502  0.26146244991E+02  0.19754260491E+02 -0.70555427492E+02  0.77935969123E+02  0.47000000000E+01 0.  1.
          5    1    5    5  503    0 -0.17568957491E+02 -0.40259654089E+02 -0.70524303496E+02  0.83218239577E+02  0.47000000000E+01 0. -1.
         -5    1    5    5    0  503  0.35822524055E+02  0.65054334475E+02 -0.30570735957E+03  0.31463375432E+03  0.47000000000E+01 0. -1.
<mgrwt>
<rscale>  0 0.27738812E+03</rscale>
<asrwt>0</asrwt>
<pdfrwt beam="1">  1        1 0.18708975E+00 0.27738812E+03</pdfrwt>
<pdfrwt beam="2">  1       -1 0.24335429E-02 0.27738812E+03</pdfrwt>
<totfact> 0.57334873E+03</totfact>
</mgrwt>
</event>
<event>
 9    1  0.2098759E-002  0.2746060E+03  0.7818608E-02  0.1098672E+00
         -2   -1    0    0    0  501 -0.00000000000E+00  0.00000000000E+00  0.35852244249E+02  0.35852244249E+02  0.00000000000E+00 0. -1.
          2   -1    0    0  501    0  0.00000000000E+00 -0.00000000000E+00 -0.52582816101E+03  0.52582816101E+03  0.00000000000E+00 0. -1.
         36    2    1    2    0    0  0.00000000000E+00 -0.71054273576E-14 -0.48997591677E+03  0.56168040526E+03  0.27460604263E+03 0.  0.
         25    2    3    3    0    0  0.21068445393E+02 -0.35492322796E+01 -0.28691323231E+03  0.31424617757E+03  0.12639217066E+03 0.  0.
         25    2    3    3    0    0 -0.21068445393E+02  0.35492322796E+01 -0.20306268445E+03  0.24743422769E+03  0.13975967506E+03 0.  0.
          5    1    4    4  502    0  0.47508853183E+02 -0.40508023220E+02 -0.76130970957E+02  0.98569801739E+02  0.47000000000E+01 0.  1.
         -5    1    4    4    0  502 -0.26440407790E+02  0.36958790940E+02 -0.21078226135E+03  0.21567637583E+03  0.47000000000E+01 0.  1.
          5    1    5    5  503    0 -0.18559932127E+02  0.69356399859E+02 -0.78700263076E+02  0.10663302814E+03  0.47000000000E+01 0.  1.
         -5    1    5    5    0  503 -0.25085132655E+01 -0.65807167579E+02 -0.12436242138E+03  0.14080119955E+03  0.47000000000E+01 0.  1.
<mgrwt>
<rscale>  0 0.27460604E+03</rscale>
<asrwt>0</asrwt>
<pdfrwt beam="1">  1        2 0.80896634E-01 0.27460604E+03</pdfrwt>
<pdfrwt beam="2">  1       -2 0.55157303E-02 0.27460604E+03</pdfrwt>
<totfact> 0.98485842E+03</totfact>
</mgrwt>
</event>
<event>
 9    1  0.2098759E-002  0.2752055E+03  0.7818608E-02  0.1098337E+00
          2   -1    0    0  501    0  0.00000000000E+00  0.00000000000E+00  0.44131890401E+02  0.44131890401E+02  0.00000000000E+00 0.  1.
         -2   -1    0    0    0  501 -0.00000000000E+00 -0.00000000000E+00 -0.42904372795E+03  0.42904372795E+03  0.00000000000E+00 0.  1.
         36    2    1    2    0    0  0.00000000000E+00  0.71054273576E-14 -0.38491183755E+03  0.47317561835E+03  0.27520545619E+03 0.  0.
         25    2    3    3    0    0 -0.25478018794E+02  0.98085824544E+01 -0.27608161192E+03  0.30490883560E+03  0.12650297964E+03 0.  0.
         25    2    3    3    0    0  0.25478018794E+02 -0.98085824544E+01 -0.10883022563E+03  0.16826678275E+03  0.12539678797E+03 0.  0.
          5    1    4    4  502    0  0.12542995357E+02  0.62427046328E+02 -0.12360651386E+03  0.13912269087E+03  0.47000000000E+01 0. -1.
         -5    1    4    4    0  502 -0.38021014151E+02 -0.52618463874E+02 -0.15247509806E+03  0.16578614473E+03  0.47000000000E+01 0. -1.
          5    1    5    5  503    0  0.35376698584E+02 -0.54658853324E+02 -0.20199417470E+02  0.68331599685E+02  0.47000000000E+01 0. -1.
         -5    1    5    5    0  503 -0.98986797892E+01  0.44850270870E+02 -0.88630808157E+02  0.99935183060E+02  0.47000000000E+01 0. -1.
<mgrwt>
<rscale>  0 0.27520546E+03</rscale>
<asrwt>0</asrwt>
<pdfrwt beam="1">  1        2 0.67895218E-02 0.27520546E+03</pdfrwt>
<pdfrwt beam="2">  1       -2 0.66006725E-01 0.27520546E+03</pdfrwt>
<totfact> 0.22678077E+03</totfact>
</mgrwt>
</event>
<event>
 9    1  0.2098759E-002  0.2756403E+03  0.7818608E-02  0.1098094E+00
          1   -1    0    0  501    0  0.00000000000E+00  0.00000000000E+00  0.77782338584E+03  0.77782338584E+03  0.00000000000E+00 0. -1.
         -1   -1    0    0    0  501 -0.00000000000E+00 -0.00000000000E+00 -0.24419929438E+02  0.24419929438E+02  0.00000000000E+00 0. -1.
         36    2    1    2    0    0  0.71054273576E-14 -0.71054273576E-14  0.75340345640E+03  0.80224331528E+03  0.27564028876E+03 0.  0.
         25    2    3    3    0    0  0.27541404130E+02 -0.47059477352E+02  0.38533679719E+03  0.40860955498E+03  0.12451585361E+03 0.  0.
         25    2    3    3    0    0 -0.27541404130E+02  0.47059477352E+02  0.36806665921E+03  0.39363376030E+03  0.12845757383E+03 0.  0.
          5    1    4    4  502    0  0.69232029905E+02 -0.34169625924E+01  0.26428101838E+03  0.27326049160E+03  0.47000000000E+01 0. -1.
         -5    1    4    4    0  502 -0.41690625775E+02 -0.43642514760E+02  0.12105577882E+03  0.13534906338E+03  0.47000000000E+01 0. -1.
          5    1    5    5  503    0 -0.24466472484E+02  0.55080985996E+02  0.37612484541E+03  0.38095211330E+03  0.47000000000E+01 0. -1.
         -5    1    5    5    0  503 -0.30749316462E+01 -0.80215086436E+01 -0.80581862039E+01  0.12681646993E+02  0.47000000000E+01 0. -1.
<mgrwt>
<rscale>  0 0.27564029E+03</rscale>
<asrwt>0</asrwt>
<pdfrwt beam="1">  1        1 0.11966512E+00 0.27564029E+03</pdfrwt>
<pdfrwt beam="2">  1       -1 0.37569128E-02 0.27564029E+03</pdfrwt>
<totfact> 0.64849870E+03</totfact>
</mgrwt>
</event>
<event>
 9    1  0.2098759E-002  0.2748348E+03  0.7818608E-02  0.1098544E+00
         -2   -1    0    0    0  501 -0.00000000000E+00  0.00000000000E+00  0.21361115421E+02  0.21361115421E+02  0.00000000000E+00 0.  1.
          2   -1    0    0  501    0  0.00000000000E+00 -0.00000000000E+00 -0.88401450807E+03  0.88401450807E+03  0.00000000000E+00 0.  1.
         36    2    1    2    0    0 -0.35527136788E-14 -0.71054273576E-14 -0.86265339265E+03  0.90537562349E+03  0.27483475720E+03 0.  0.
         25    2    3    3    0    0 -0.17951459638E+02  0.51547425980E+02 -0.45807193008E+03  0.47799790016E+03  0.12519068418E+03 0.  0.
         25    2    3    3    0    0  0.17951459638E+02 -0.51547425980E+02 -0.40458146257E+03  0.42737772333E+03  0.12643641293E+03 0.  0.
          5    1    4    4  502    0 -0.36733184678E+02  0.84497179619E+02 -0.25074935803E+03  0.26718239234E+03  0.47000000000E+01 0. -1.
         -5    1    4    4    0  502  0.18781725040E+02 -0.32949753639E+02 -0.20732257205E+03  0.21081550783E+03  0.47000000000E+01 0. -1.
          5    1    5    5  503    0  0.79671906393E+01 -0.34139930988E+02 -0.16992011212E+02  0.39240660795E+02  0.47000000000E+01 0.  1.
         -5    1    5    5    0  503  0.99842689986E+01 -0.17407494992E+02 -0.38758945136E+03  0.38813706253E+03  0.47000000000E+01 0.  1.
<mgrwt>
<rscale>  0 0.27483476E+03</rscale>
<asrwt>0</asrwt>
<pdfrwt beam="1">  1        2 0.13600220E+00 0.27483476E+03</pdfrwt>
<pdfrwt beam="2">  1       -2 0.32863262E-02 0.27483476E+03</pdfrwt>
<totfact> 0.11464541E+04</totfact>
</mgrwt>
</event>
<event>
 9    1  0.2098759E-002  0.2743497E+03  0.7818608E-02  0.1098816E+00
          1   -1    0    0  501    0  0.00000000000E+00  0.00000000000E+00  0.46219973789E+03  0.46219973789E+03  0.00000000000E+00 0.  1.
         -1   -1    0    0    0  501 -0.00000000000E+00 -0.00000000000E+00 -0.40711694512E+02  0.40711694512E+02  0.00000000000E+00 0.  1.
         36    2    1    2    0    0 -0.14210854715E-13  0.00000000000E+00  0.42148804337E+03  0.50291143240E+03  0.27434966399E+03 0.  0.
         25    2    3    3    0    0 -0.64253960764E+02 -0.87240130034E+01  0.19082541860E+03  0.24082336417E+03  0.13182136575E+03 0.  0.
         25    2    3    3    0    0  0.64253960764E+02  0.87240130034E+01  0.23066262477E+03  0.26208806823E+03  0.10620842324E+03 0.  0.
          5    1    4    4  502    0 -0.36918885130E+02 -0.19688193896E+02  0.20394132997E+03  0.20824213101E+03  0.47000000000E+01 0. -1.
         -5    1    4    4    0  502 -0.27335075633E+02  0.10964180893E+02 -0.13115911372E+02  0.32581233151E+02  0.47000000000E+01 0. -1.
          5    1    5    5  503    0 -0.22427313745E+02  0.20775392723E+02  0.10064245169E+03  0.10528814951E+03  0.47000000000E+01 0. -1.
         -5    1    5    5    0  503  0.86681274509E+02 -0.12051379719E+02  0.13002017308E+03  0.15679991872E+03  0.47000000000E+01 0. -1.
<mgrwt>
<rscale>  0 0.27434966E+03</rscale>
<asrwt>0</asrwt>
<pdfrwt beam="1">  1        1 0.71107648E-01 0.27434966E+03</pdfrwt>
<pdfrwt beam="2">  1       -1 0.62633379E-02 0.27434966E+03</pdfrwt>
<totfact> 0.62436641E+03</totfact>
</mgrwt>
</event>
<event>
 9    1  0.2098759E-002  0.2750061E+03  0.7818608E-02  0.1098448E+00
          2   -1    0    0  501    0  0.00000000000E+00  0.00000000000E+00  0.53958523404E+02  0.53958523404E+02  0.00000000000E+00 0. -1.
         -2   -1    0    0    0  501 -0.00000000000E+00 -0.00000000000E+00 -0.35040036990E+03  0.35040036990E+03  0.00000000000E+00 0. -1.
         36    2    1    2    0    0  0.88817841970E-15  0.00000000000E+00 -0.29644184650E+03  0.40435889331E+03  0.27500608401E+03 0.  0.
         25    2    3    3    0    0  0.46433398550E+01  0.39927686856E+02 -0.20449669838E+03  0.24321327837E+03  0.12537152127E+03 0.  0.
         25    2    3    3    0    0 -0.46433398550E+01 -0.39927686856E+02 -0.91945148123E+02  0.16114561494E+03  0.12608813651E+03 0.  0.
          5    1    4    4  502    0 -0.11538212709E+01  0.35880882689E+02 -0.22137710358E+03  0.22431825836E+03  0.47000000000E+01 0. -1.
         -5    1    4    4    0  502  0.57971611259E+01  0.40468041669E+01  0.16880405204E+02  0.18895020004E+02  0.47000000000E+01 0. -1.
          5    1    5    5  503    0 -0.57793451573E+02 -0.14968302032E+02 -0.10764913137E+02  0.60844937878E+02  0.47000000000E+01 0. -1.
         -5    1    5    5    0  503  0.53150111718E+02 -0.24959384823E+02 -0.81180234986E+02  0.10030067706E+03  0.47000000000E+01 0. -1.
<mgrwt>
<rscale>  0 0.27500608E+03</rscale>
<asrwt>0</asrwt>
<pdfrwt beam="1">  1        2 0.83013112E-02 0.27500608E+03</pdfrwt>
<pdfrwt beam="2">  1       -2 0.53907750E-01 0.27500608E+03</pdfrwt>
<totfact> 0.26662362E+03</totfact>
</mgrwt>
</event>
<event>
 9    1  0.2098759E-002  0.2777376E+03  0.7818608E-02  0.1096931E+00
          2   -1    0    0  501    0  0.00000000000E+00  0.00000000000E+00  0.40761470751E+02  0.40761470751E+02  0.00000000000E+00 0.  1.
         -2   -1    0    0    0  501 -0.00000000000E+00 -0.00000000000E+00 -0.47310728021E+03  0.47310728021E+03  0.00000000000E+00 0.  1.
         36    2    1    2    0    0  0.00000000000E+00  0.35527136788E-14 -0.43234580946E+03  0.51386875096E+03  0.27773763565E+03 0.  0.
         25    2    3    3    0    0 -0.57298547031E+02  0.75668169561E+01 -0.23963877535E+03  0.27557087529E+03  0.12317542143E+03 0.  0.
         25    2    3    3    0    0  0.57298547031E+02 -0.75668169561E+01 -0.19270703411E+03  0.23829787567E+03  0.12770863849E+03 0.  0.
          5    1    4    4  502    0  0.26895935224E+02 -0.32711982352E+02 -0.75162457146E+02  0.86399942623E+02  0.47000000000E+01 0. -1.
         -5    1    4    4    0  502 -0.84194482255E+02  0.40278799308E+02 -0.16447631820E+03  0.18917093267E+03  0.47000000000E+01 0. -1.
          5    1    5    5  503    0  0.29208479842E+01  0.29275722937E+02 -0.16361670442E+03  0.16630729170E+03  0.47000000000E+01 0.  1.
         -5    1    5    5    0  503  0.54377699047E+02 -0.36842539894E+02 -0.29090329689E+02  0.71990583974E+02  0.47000000000E+01 0.  1.
<mgrwt>
<rscale>  0 0.27773764E+03</rscale>
<asrwt>0</asrwt>
<pdfrwt beam="1">  1        2 0.62709954E-02 0.27773764E+03</pdfrwt>
<pdfrwt beam="2">  1       -2 0.72785737E-01 0.27773764E+03</pdfrwt>
<totfact> 0.20401737E+03</totfact>
</mgrwt>
</event>
<event>
 9    1  0.2098759E-002  0.2751737E+03  0.7818608E-02  0.1098355E+00
          3   -1    0    0  501    0  0.00000000000E+00  0.00000000000E+00  0.24182317012E+02  0.24182317012E+02  0.00000000000E+00 0. -1.
         -3   -1    0    0    0  501 -0.00000000000E+00 -0.00000000000E+00 -0.78280930213E+03  0.78280930213E+03  0.00000000000E+00 0. -1.
         36    2    1    2    0    0 -0.35527136788E-14  0.00000000000E+00 -0.75862698512E+03  0.80699161915E+03  0.27517371026E+03 0.  0.
         25    2    3    3    0    0  0.12102677765E+02 -0.50246386211E+02 -0.38363728419E+03  0.40755306194E+03  0.12747846225E+03 0.  0.
         25    2    3    3    0    0 -0.12102677765E+02  0.50246386211E+02 -0.37498970093E+03  0.39943855721E+03  0.12752533490E+03 0.  0.
          5    1    4    4  502    0  0.87899483938E+01  0.49129049130E+01 -0.33069514488E+03  0.33088180469E+03  0.47000000000E+01 0.  1.
         -5    1    4    4    0  502  0.33127293713E+01 -0.55159291124E+02 -0.52942139307E+02  0.76671257245E+02  0.47000000000E+01 0.  1.
          5    1    5    5  503    0 -0.15663958042E+02 -0.36306437756E+02 -0.20230923355E+03  0.20619076843E+03  0.47000000000E+01 0. -1.
         -5    1    5    5    0  503  0.35612802772E+01  0.86552823967E+02 -0.17268046738E+03  0.19324778878E+03  0.47000000000E+01 0. -1.
<mgrwt>
<rscale>  0 0.27517371E+03</rscale>
<asrwt>0</asrwt>
<pdfrwt beam="1">  1        3 0.37203570E-02 0.27517371E+03</pdfrwt>
<pdfrwt beam="2">  1       -3 0.12043218E+00 0.27517371E+03</pdfrwt>
<totfact> 0.54093800E+02</totfact>
</mgrwt>
</event>
<event>
 9    1  0.2098759E-002  0.2759460E+03  0.7818608E-02  0.1097924E+00
          2   -1    0    0  501    0  0.00000000000E+00  0.00000000000E+00  0.29367880288E+04  0.29367880288E+04  0.00000000000E+00 0. -1.
         -2   -1    0    0    0  501 -0.00000000000E+00 -0.00000000000E+00 -0.64820976591E+01  0.64820976591E+01  0.00000000000E+00 0. -1.
         36    2    1    2    0    0  0.14210854715E-13 -0.71054273576E-14  0.29303059312E+04  0.29432701265E+04  0.27594598607E+03 0.  0.
         25    2    3    3    0    0  0.51933413721E+02  0.66967779109E+01  0.12513865561E+04  0.12588445992E+04  0.12640999130E+03 0.  0.
         25    2    3    3    0    0 -0.51933413721E+02 -0.66967779109E+01  0.16789193751E+04  0.16844255273E+04  0.12560717588E+03 0.  0.
          5    1    4    4  502    0  0.10696401681E+02 -0.42903419619E+02  0.92743139356E+03  0.92849674000E+03  0.47000000000E+01 0.  1.
         -5    1    4    4    0  502  0.41237012040E+02  0.49600197530E+02  0.32395516256E+03  0.33034785925E+03  0.47000000000E+01 0.  1.
          5    1    5    5  503    0  0.20881065378E+02 -0.42825836129E+02  0.89741876675E+03  0.89869494494E+03  0.47000000000E+01 0. -1.
         -5    1    5    5    0  503 -0.72814479099E+02  0.36129058219E+02  0.78150060830E+03  0.78573058232E+03  0.47000000000E+01 0. -1.
<mgrwt>
<rscale>  0 0.27594599E+03</rscale>
<asrwt>0</asrwt>
<pdfrwt beam="1">  1        2 0.45181248E+00 0.27594599E+03</pdfrwt>
<pdfrwt beam="2">  1       -2 0.99724814E-03 0.27594599E+03</pdfrwt>
<totfact> 0.48595913E+03</totfact>
</mgrwt>
</event>
<event>
 9    1  0.2098759E-002  0.2744045E+03  0.7818608E-02  0.1098785E+00
          2   -1    0    0  501    0  0.00000000000E+00  0.00000000000E+00  0.99942569147E+03  0.99942569147E+03  0.00000000000E+00 0. -1.
         -2   -1    0    0    0  501 -0.00000000000E+00 -0.00000000000E+00 -0.18835277722E+02  0.18835277722E+02  0.00000000000E+00 0. -1.
         36    2    1    2    0    0 -0.71054273576E-14 -0.71054273576E-14  0.98059041375E+03  0.10182609692E+04  0.27440452227E+03 0.  0.
         25    2    3    3    0    0 -0.26597374608E+02 -0.16218148637E+02  0.67768179757E+03  0.68984080341E+03  0.12512899988E+03 0.  0.
         25    2    3    3    0    0  0.26597374608E+02  0.16218148637E+02  0.30290861618E+03  0.32842016578E+03  0.12302734190E+03 0.  0.
          5    1    4    4  502    0 -0.11675938181E+02 -0.44399333937E+02  0.63335471935E+03  0.63503379351E+03  0.47000000000E+01 0.  1.
         -5    1    4    4    0  502 -0.14921436428E+02  0.28181185299E+02  0.44327078220E+02  0.54807009893E+02  0.47000000000E+01 0.  1.
          5    1    5    5  503    0  0.34245717829E+02 -0.27374248093E+02  0.26867776735E+03  0.27227183350E+03  0.47000000000E+01 0. -1.
         -5    1    5    5    0  503 -0.76483432206E+01  0.43592396730E+02  0.34230848832E+02  0.56148332286E+02  0.47000000000E+01 0. -1.
<mgrwt>
<rscale>  0 0.27440452E+03</rscale>
<asrwt>0</asrwt>
<pdfrwt beam="1">  1        2 0.15375776E+00 0.27440452E+03</pdfrwt>
<pdfrwt beam="2">  1       -2 0.28977358E-02 0.27440452E+03</pdfrwt>
<totfact> 0.11691773E+04</totfact>
</mgrwt>
</event>
<event>
 9    1  0.2098759E-002  0.2761905E+03  0.7818608E-02  0.1097788E+00
         -2   -1    0    0    0  501 -0.00000000000E+00  0.00000000000E+00  0.19573944517E+02  0.19573944517E+02  0.00000000000E+00 0. -1.
          2   -1    0    0  501    0  0.00000000000E+00 -0.00000000000E+00 -0.97426929665E+03  0.97426929665E+03  0.00000000000E+00 0. -1.
         36    2    1    2    0    0 -0.17763568394E-14  0.00000000000E+00 -0.95469535213E+03  0.99384324117E+03  0.27619046441E+03 0.  0.
         25    2    3    3    0    0  0.80318641778E+01 -0.51931873707E+01 -0.28225957086E+03  0.30913367921E+03  0.12570475824E+03 0.  0.
         25    2    3    3    0    0 -0.80318641778E+01  0.51931873707E+01 -0.67243578128E+03  0.68470956196E+03  0.12870829134E+03 0.  0.
          5    1    4    4  502    0 -0.55099328296E+01 -0.49669014362E+02 -0.24291637321E+03  0.24804802907E+03  0.47000000000E+01 0. -1.
         -5    1    4    4    0  502  0.13541797007E+02  0.44475826991E+02 -0.39343197644E+02  0.61085650144E+02  0.47000000000E+01 0. -1.
          5    1    5    5  503    0 -0.50080284917E+02  0.42565517802E+02 -0.25081430728E+03  0.25932559646E+03  0.47000000000E+01 0.  1.
         -5    1    5    5    0  503  0.42048420739E+02 -0.37372330431E+02 -0.42162147400E+03  0.42538396550E+03  0.47000000000E+01 0.  1.
<mgrwt>
<rscale>  0 0.27619046E+03</rscale>
<asrwt>0</asrwt>
<pdfrwt beam="1">  1        2 0.14988757E+00 0.27619046E+03</pdfrwt>
<pdfrwt beam="2">  1       -2 0.30113764E-02 0.27619046E+03</pdfrwt>
<totfact> 0.11445266E+04</totfact>
</mgrwt>
</event>
<event>
 9    1  0.2098759E-002  0.2751653E+03  0.7818608E-02  0.1098359E+00
         -2   -1    0    0    0  501 -0.00000000000E+00  0.00000000000E+00  0.97986732331E+02  0.97986732331E+02  0.00000000000E+00 0.  1.
          2   -1    0    0  501    0  0.00000000000E+00 -0.00000000000E+00 -0.19317901041E+03  0.19317901041E+03  0.00000000000E+00 0.  1.
         36    2    1    2    0    0  0.00000000000E+00 -0.35527136788E-14 -0.95192278079E+02  0.29116574274E+03  0.27516525933E+03 0.  0.
         25    2    3    3    0    0 -0.35460758160E+02  0.67602547473E+01  0.85608673342E+01  0.12605985238E+03  0.12047668455E+03 0.  0.
         25    2    3    3    0    0  0.35460758160E+02 -0.67602547473E+01 -0.10375314541E+03  0.16510589036E+03  0.12325612939E+03 0.  0.
          5    1    4    4  502    0 -0.52311754174E+02 -0.44052717039E+02 -0.98464413287E+01  0.69254630965E+02  0.47000000000E+01 0.  1.
         -5    1    4    4    0  502  0.16850996014E+02  0.50812971786E+02  0.18407308663E+02  0.56805221420E+02  0.47000000000E+01 0.  1.
          5    1    5    5  503    0 -0.40704585564E+02 -0.12070613577E+02 -0.95751305189E+01  0.43775976546E+02  0.47000000000E+01 0. -1.
         -5    1    5    5    0  503  0.76165343724E+02  0.53103588301E+01 -0.94178014894E+02  0.12132991381E+03  0.47000000000E+01 0. -1.
<mgrwt>
<rscale>  0 0.27516526E+03</rscale>
<asrwt>0</asrwt>
<pdfrwt beam="1">  1        2 0.29719847E-01 0.27516526E+03</pdfrwt>
<pdfrwt beam="2">  1       -2 0.15074882E-01 0.27516526E+03</pdfrwt>
<totfact> 0.59713504E+03</totfact>
</mgrwt>
</event>
<event>
 9    1  0.2098759E-002  0.2758551E+03  0.7818608E-02  0.1097975E+00
         -2   -1    0    0    0  501 -0.00000000000E+00  0.00000000000E+00  0.89502477718E+01  0.89502477718E+01  0.00000000000E+00 0.  1.
          2   -1    0    0  501    0  0.00000000000E+00 -0.00000000000E+00 -0.21255287192E+04  0.21255287192E+04  0.00000000000E+00 0.  1.
         36    2    1    2    0    0  0.00000000000E+00  0.71054273576E-14 -0.21165784715E+04  0.21344789670E+04  0.27585509735E+03 0.  0.
         25    2    3    3    0    0  0.13411974157E+02 -0.63925929977E+02 -0.82713293759E+03  0.83772774453E+03  0.11563940472E+03 0.  0.
         25    2    3    3    0    0 -0.13411974157E+02  0.63925929977E+02 -0.12894455339E+04  0.12967512225E+04  0.12094437817E+03 0.  0.
          5    1    4    4  502    0 -0.24011762441E+02 -0.55113420052E+02 -0.18825503238E+03  0.19767675893E+03  0.47000000000E+01 0.  1.
         -5    1    4    4    0  502  0.37423736598E+02 -0.88125099252E+01 -0.63887790522E+03  0.64005098560E+03  0.47000000000E+01 0.  1.
          5    1    5    5  503    0 -0.25520605442E+02  0.95921412443E+02 -0.10701463084E+04  0.10747499383E+04  0.47000000000E+01 0. -1.
         -5    1    5    5    0  503  0.12108631285E+02 -0.31995482466E+02 -0.21929922551E+03  0.22200128413E+03  0.47000000000E+01 0. -1.
<mgrwt>
<rscale>  0 0.27585510E+03</rscale>
<asrwt>0</asrwt>
<pdfrwt beam="1">  1        2 0.32700417E+00 0.27585510E+03</pdfrwt>
<pdfrwt beam="2">  1       -2 0.13769622E-02 0.27585510E+03</pdfrwt>
<totfact> 0.85290434E+03</totfact>
</mgrwt>
</event>
<event>
 9    1  0.2098759E-002  0.2730451E+03  0.7818608E-02  0.1099549E+00
          2   -1    0    0  501    0  0.00000000000E+00  0.00000000000E+00  0.33564310046E+03  0.33564310046E+03  0.00000000000E+00 0.  1.
         -2   -1    0    0    0  501 -0.00000000000E+00 -0.00000000000E+00 -0.55530419357E+02  0.55530419357E+02  0.00000000000E+00 0.  1.
         36    2    1    2    0    0  0.00000000000E+00  0.14210854715E-13  0.28011268110E+03  0.39117351982E+03  0.27304506678E+03 0.  0.
         25    2    3    3    0    0  0.27244715014E+02 -0.67973406531E+02  0.15336907413E+03  0.20181797907E+03  0.10883825285E+03 0.  0.
         25    2    3    3    0    0 -0.27244715014E+02  0.67973406531E+02  0.12674360697E+03  0.18935554075E+03  0.12012044127E+03 0.  0.
          5    1    4    4  502    0  0.15967630543E+02 -0.37905937459E+02  0.16283144431E+03  0.16801188820E+03  0.47000000000E+01 0. -1.
         -5    1    4    4    0  502  0.11277084471E+02 -0.30067469072E+02 -0.94623701781E+01  0.33806090871E+02  0.47000000000E+01 0. -1.
          5    1    5    5  503    0 -0.42570753350E+02 -0.50231998949E+01  0.10181635806E+03  0.11057197813E+03  0.47000000000E+01 0.  1.
         -5    1    5    5    0  503  0.15326038335E+02  0.72996606426E+02  0.24927248907E+02  0.78783562618E+02  0.47000000000E+01 0.  1.
<mgrwt>
<rscale>  0 0.27304507E+03</rscale>
<asrwt>0</asrwt>
<pdfrwt beam="1">  1        2 0.51637399E-01 0.27304507E+03</pdfrwt>
<pdfrwt beam="2">  1       -2 0.85431416E-02 0.27304507E+03</pdfrwt>
<totfact> 0.81841275E+03</totfact>
</mgrwt>
</event>
<event>
 9    1  0.2098759E-002  0.2750398E+03  0.7818608E-02  0.1098429E+00
          2   -1    0    0  501    0  0.00000000000E+00  0.00000000000E+00  0.73713869209E+03  0.73713869209E+03  0.00000000000E+00 0. -1.
         -2   -1    0    0    0  501 -0.00000000000E+00 -0.00000000000E+00 -0.25655582543E+02  0.25655582543E+02  0.00000000000E+00 0. -1.
         36    2    1    2    0    0  0.00000000000E+00  0.35527136788E-14  0.71148310954E+03  0.76279427463E+03  0.27503979756E+03 0.  0.
         25    2    3    3    0    0 -0.39388904667E+02 -0.85659116421E+01  0.28988270150E+03  0.32069456755E+03  0.13110363982E+03 0.  0.
         25    2    3    3    0    0  0.39388904667E+02  0.85659116421E+01  0.42160040805E+03  0.44209970708E+03  0.12680846298E+03 0.  0.
          5    1    4    4  502    0 -0.76644805919E+02 -0.31773560103E+02  0.12574622091E+03  0.15072553688E+03  0.47000000000E+01 0. -1.
         -5    1    4    4    0  502  0.37255901252E+02  0.23207648461E+02  0.16413648059E+03  0.16996903066E+03  0.47000000000E+01 0. -1.
          5    1    5    5  503    0 -0.42065974117E+02  0.36383370846E+01  0.77048480700E+02  0.87984896734E+02  0.47000000000E+01 0.  1.
         -5    1    5    5    0  503  0.81454878784E+02  0.49275745575E+01  0.34455192735E+03  0.35411481035E+03  0.47000000000E+01 0.  1.
<mgrwt>
<rscale>  0 0.27503980E+03</rscale>
<asrwt>0</asrwt>
<pdfrwt beam="1">  1        2 0.11340594E+00 0.27503980E+03</pdfrwt>
<pdfrwt beam="2">  1       -2 0.39470133E-02 0.27503980E+03</pdfrwt>
<totfact> 0.10992352E+04</totfact>
</mgrwt>
</event>
