<event>
 5    1  0.1139158E+001  0.2758601E+03  0.7818608E-02  0.1097972E+00
          2   -1    0    0  501    0  0.00000000000E+00  0.00000000000E+00  0.72605008705E+03  0.72605008705E+03  0.00000000000E+00 0. -1.
         -2   -1    0    0    0  501 -0.00000000000E+00 -0.00000000000E+00 -0.26203005999E+02  0.26203005999E+02  0.00000000000E+00 0. -1.
         35    2    1    2    0    0  0.00000000000E+00  0.00000000000E+00  0.69984708105E+03  0.75225309305E+03  0.27586007168E+03 0.  0.
         25    1    3    3    0    0  0.27049087355E+01 -0.47117346994E+02  0.21640566981E+03  0.25191025157E+03  0.12000000000E+03 0.  0.
         25    1    3    3    0    0 -0.27049087355E+01  0.47117346994E+02  0.48344141124E+03  0.50034284148E+03  0.12000000000E+03 0.  0.
<mgrwt>
<rscale>  0 0.27586007E+03</rscale>
<asrwt>0</asrwt>
<pdfrwt beam="1">  1        2 0.11170000E+00 0.27586007E+03</pdfrwt>
<pdfrwt beam="2">  1       -2 0.40312322E-02 0.27586007E+03</pdfrwt>
<totfact> 0.10850570E+04</totfact>
</mgrwt>
</event>
<event>
 5    1  0.1139158E+001  0.2754023E+03  0.7818608E-02  0.1098227E+00
          2   -1    0    0  501    0  0.00000000000E+00  0.00000000000E+00  0.36634518717E+03  0.36634518717E+03  0.00000000000E+00 0. -1.
         -2   -1    0    0    0  501 -0.00000000000E+00 -0.00000000000E+00 -0.51758835140E+02  0.51758835140E+02  0.00000000000E+00 0. -1.
         35    2    1    2    0    0  0.00000000000E+00  0.00000000000E+00  0.31458635203E+03  0.41810402231E+03  0.27540225233E+03 0.  0.
         25    1    3    3    0    0 -0.29382690936E+02 -0.36903135550E+02  0.23067558472E+03  0.26426579296E+03  0.12000000000E+03 0.  0.
         25    1    3    3    0    0  0.29382690936E+02  0.36903135550E+02  0.83910767304E+02  0.15383822935E+03  0.12000000000E+03 0.  0.
<mgrwt>
<rscale>  0 0.27540225E+03</rscale>
<asrwt>0</asrwt>
<pdfrwt beam="1">  1        2 0.56360796E-01 0.27540225E+03</pdfrwt>
<pdfrwt beam="2">  1       -2 0.79628980E-02 0.27540225E+03</pdfrwt>
<totfact> 0.83158026E+03</totfact>
</mgrwt>
</event>
<event>
 5    1  0.1139158E+001  0.2748612E+03  0.7818608E-02  0.1098529E+00
         -3   -1    0    0    0  501 -0.00000000000E+00  0.00000000000E+00  0.11250367248E+03  0.11250367248E+03  0.00000000000E+00 0. -1.
          3   -1    0    0  501    0  0.00000000000E+00 -0.00000000000E+00 -0.16788044830E+03  0.16788044830E+03  0.00000000000E+00 0. -1.
         35    2    1    2    0    0  0.00000000000E+00  0.00000000000E+00 -0.55376775815E+02  0.28038412078E+03  0.27486117930E+03 0.  0.
         25    1    3    3    0    0 -0.63217094869E+02  0.20040768176E+02 -0.37319146259E+02  0.14209416649E+03  0.12000000000E+03 0.  0.
         25    1    3    3    0    0  0.63217094869E+02 -0.20040768176E+02 -0.18057629556E+02  0.13828995429E+03  0.12000000000E+03 0.  0.
<mgrwt>
<rscale>  0 0.27486118E+03</rscale>
<asrwt>0</asrwt>
<pdfrwt beam="1">  1        3 0.25827761E-01 0.27486118E+03</pdfrwt>
<pdfrwt beam="2">  1       -3 0.17308257E-01 0.27486118E+03</pdfrwt>
<totfact> 0.10423613E+03</totfact>
</mgrwt>
</event>
<event>
 5    1  0.1139158E+001  0.2755113E+03  0.7818608E-02  0.1098166E+00
         -2   -1    0    0    0  501 -0.00000000000E+00  0.00000000000E+00  0.92637562954E+02  0.92637562954E+02  0.00000000000E+00 0. -1.
          2   -1    0    0  501    0  0.00000000000E+00 -0.00000000000E+00 -0.20484794369E+03  0.20484794369E+03  0.00000000000E+00 0. -1.
         35    2    1    2    0    0  0.00000000000E+00  0.00000000000E+00 -0.11221038073E+03  0.29748550664E+03  0.27551126495E+03 0.  0.
         25    1    3    3    0    0  0.14179470109E+02 -0.49270804478E+02 -0.84494998600E+01  0.13076721146E+03  0.12000000000E+03 0.  0.
         25    1    3    3    0    0 -0.14179470109E+02  0.49270804478E+02 -0.10376088087E+03  0.16671829517E+03  0.12000000000E+03 0.  0.
<mgrwt>
<rscale>  0 0.27551126E+03</rscale>
<asrwt>0</asrwt>
<pdfrwt beam="1">  1        2 0.31515068E-01 0.27551126E+03</pdfrwt>
<pdfrwt beam="2">  1       -2 0.14251933E-01 0.27551126E+03</pdfrwt>
<totfact> 0.61427123E+03</totfact>
</mgrwt>
</event>
<event>
 5    1  0.1139158E+001  0.2746000E+03  0.7818608E-02  0.1098675E+00
         -2   -1    0    0    0  501 -0.00000000000E+00  0.00000000000E+00  0.31659435596E+03  0.31659435596E+03  0.00000000000E+00 0. -1.
          2   -1    0    0  501    0  0.00000000000E+00 -0.00000000000E+00 -0.59543989868E+02  0.59543989868E+02  0.00000000000E+00 0. -1.
         35    2    1    2    0    0  0.00000000000E+00  0.00000000000E+00  0.25705036610E+03  0.37613834583E+03  0.27460000818E+03 0.  0.
         25    1    3    3    0    0  0.36792945075E+02 -0.24005204285E+02  0.59745354243E+02  0.14106550958E+03  0.12000000000E+03 0.  0.
         25    1    3    3    0    0 -0.36792945075E+02  0.24005204285E+02  0.19730501185E+03  0.23507283625E+03  0.12000000000E+03 0.  0.
<mgrwt>
<rscale>  0 0.27460001E+03</rscale>
<asrwt>0</asrwt>
<pdfrwt beam="1">  1        2 0.91606140E-02 0.27460001E+03</pdfrwt>
<pdfrwt beam="2">  1       -2 0.48706823E-01 0.27460001E+03</pdfrwt>
<totfact> 0.28861052E+03</totfact>
</mgrwt>
</event>
<event>
 5    1  0.1139158E+001  0.2749481E+03  0.7818608E-02  0.1098481E+00
         -1   -1    0    0    0  501 -0.00000000000E+00  0.00000000000E+00  0.23891418749E+03  0.23891418749E+03  0.00000000000E+00 0. -1.
          1   -1    0    0  501    0  0.00000000000E+00 -0.00000000000E+00 -0.79104220073E+02  0.79104220073E+02  0.00000000000E+00 0. -1.
         35    2    1    2    0    0  0.00000000000E+00  0.00000000000E+00  0.15980996742E+03  0.31801840757E+03  0.27494814396E+03 0.  0.
         25    1    3    3    0    0  0.59435364898E+02 -0.28057925941E+02  0.95393311017E+02  0.16679236672E+03  0.12000000000E+03 0.  0.
         25    1    3    3    0    0 -0.59435364898E+02  0.28057925941E+02  0.64416656404E+02  0.15122604085E+03  0.12000000000E+03 0.  0.
<mgrwt>
<rscale>  0 0.27494814E+03</rscale>
<asrwt>0</asrwt>
<pdfrwt beam="1">  1        1 0.12169880E-01 0.27494814E+03</pdfrwt>
<pdfrwt beam="2">  1       -1 0.36756028E-01 0.27494814E+03</pdfrwt>
<totfact> 0.35159538E+03</totfact>
</mgrwt>
</event>
<event>
 5    1  0.1139158E+001  0.2754448E+03  0.7818608E-02  0.1098203E+00
         -1   -1    0    0    0  501 -0.00000000000E+00  0.00000000000E+00  0.23301451738E+03  0.23301451738E+03  0.00000000000E+00 0. -1.
          1   -1    0    0  501    0  0.00000000000E+00 -0.00000000000E+00 -0.81400307640E+02  0.81400307640E+02  0.00000000000E+00 0. -1.
         35    2    1    2    0    0  0.00000000000E+00  0.00000000000E+00  0.15161420974E+03  0.31441482502E+03  0.27544475598E+03 0.  0.
         25    1    3    3    0    0  0.95056440267E+01  0.42803769498E+02  0.13451221149E+03  0.18551564622E+03  0.12000000000E+03 0.  0.
         25    1    3    3    0    0 -0.95056440267E+01 -0.42803769498E+02  0.17101998250E+02  0.12889917880E+03  0.12000000000E+03 0.  0.
<mgrwt>
<rscale>  0 0.27544476E+03</rscale>
<asrwt>0</asrwt>
<pdfrwt beam="1">  1        1 0.12523124E-01 0.27544476E+03</pdfrwt>
<pdfrwt beam="2">  1       -1 0.35848387E-01 0.27544476E+03</pdfrwt>
<totfact> 0.35362075E+03</totfact>
</mgrwt>
</event>
<event>
 5    1  0.1139158E+001  0.2746097E+03  0.7818608E-02  0.1098670E+00
          2   -1    0    0  501    0  0.00000000000E+00  0.00000000000E+00  0.45556138016E+03  0.45556138016E+03  0.00000000000E+00 0.  1.
         -2   -1    0    0    0  501 -0.00000000000E+00 -0.00000000000E+00 -0.41383272073E+02  0.41383272073E+02  0.00000000000E+00 0.  1.
         35    2    1    2    0    0  0.00000000000E+00  0.00000000000E+00  0.41417810809E+03  0.49694465224E+03  0.27460969059E+03 0.  0.
         25    1    3    3    0    0 -0.30878054087E+02  0.55662077511E+02  0.17085558719E+03  0.21827357323E+03  0.12000000000E+03 0.  0.
         25    1    3    3    0    0  0.30878054087E+02 -0.55662077511E+02  0.24332252090E+03  0.27867107900E+03  0.12000000000E+03 0.  0.
<mgrwt>
<rscale>  0 0.27460969E+03</rscale>
<asrwt>0</asrwt>
<pdfrwt beam="1">  1        2 0.70086363E-01 0.27460969E+03</pdfrwt>
<pdfrwt beam="2">  1       -2 0.63666575E-02 0.27460969E+03</pdfrwt>
<totfact> 0.92750348E+03</totfact>
</mgrwt>
</event>
<event>
 5    1  0.1139158E+001  0.2737250E+03  0.7818608E-02  0.1099166E+00
         -1   -1    0    0    0  501 -0.00000000000E+00  0.00000000000E+00  0.65823065484E+01  0.65823065484E+01  0.00000000000E+00 0.  1.
          1   -1    0    0  501    0  0.00000000000E+00 -0.00000000000E+00 -0.28457120227E+04  0.28457120227E+04  0.00000000000E+00 0.  1.
         35    2    1    2    0    0  0.00000000000E+00  0.00000000000E+00 -0.28391297161E+04  0.28522943292E+04  0.27372503636E+03 0.  0.
         25    1    3    3    0    0  0.47437018581E+02 -0.38111658037E+02 -0.16808170737E+04  0.16861935845E+04  0.12000000000E+03 0.  0.
         25    1    3    3    0    0 -0.47437018581E+02  0.38111658037E+02 -0.11583126424E+04  0.11661007447E+04  0.12000000000E+03 0.  0.
<mgrwt>
<rscale>  0 0.27372504E+03</rscale>
<asrwt>0</asrwt>
<pdfrwt beam="1">  1        1 0.43780190E+00 0.27372504E+03</pdfrwt>
<pdfrwt beam="2">  1       -1 0.10126624E-02 0.27372504E+03</pdfrwt>
<totfact> 0.17106369E+03</totfact>
</mgrwt>
</event>
<event>
 5    1  0.1139158E+001  0.2753217E+03  0.7818608E-02  0.1098272E+00
          1   -1    0    0  501    0  0.00000000000E+00  0.00000000000E+00  0.21797170300E+04  0.21797170300E+04  0.00000000000E+00 0. -1.
         -1   -1    0    0    0  501 -0.00000000000E+00 -0.00000000000E+00 -0.86940252319E+01  0.86940252319E+01  0.00000000000E+00 0. -1.
         35    2    1    2    0    0  0.00000000000E+00  0.00000000000E+00  0.21710230048E+04  0.21884110552E+04  0.27532173803E+03 0.  0.
         25    1    3    3    0    0 -0.30691561801E+02 -0.15812656647E+02  0.15461510847E+04  0.15511850917E+04  0.12000000000E+03 0.  0.
         25    1    3    3    0    0  0.30691561801E+02  0.15812656647E+02  0.62487192009E+03  0.63722596352E+03  0.12000000000E+03 0.  0.
<mgrwt>
<rscale>  0 0.27532174E+03</rscale>
<asrwt>0</asrwt>
<pdfrwt beam="1">  1        1 0.33534065E+00 0.27532174E+03</pdfrwt>
<pdfrwt beam="2">  1       -1 0.13375441E-02 0.27532174E+03</pdfrwt>
<totfact> 0.31781879E+03</totfact>
</mgrwt>
</event>
<event>
 5    1  0.1139158E+001  0.2764973E+03  0.7818608E-02  0.1097618E+00
         -3   -1    0    0    0  501 -0.00000000000E+00  0.00000000000E+00  0.26668550858E+03  0.26668550858E+03  0.00000000000E+00 0. -1.
          3   -1    0    0  501    0  0.00000000000E+00 -0.00000000000E+00 -0.71667506891E+02  0.71667506891E+02  0.00000000000E+00 0. -1.
         35    2    1    2    0    0  0.00000000000E+00  0.00000000000E+00  0.19501800168E+03  0.33835301547E+03  0.27649727321E+03 0.  0.
         25    1    3    3    0    0  0.39188064394E+02 -0.38479808780E+02  0.14790878389E+03  0.19822565027E+03  0.12000000000E+03 0.  0.
         25    1    3    3    0    0 -0.39188064394E+02  0.38479808780E+02  0.47109217794E+02  0.14012736519E+03  0.12000000000E+03 0.  0.
<mgrwt>
<rscale>  0 0.27649727E+03</rscale>
<asrwt>0</asrwt>
<pdfrwt beam="1">  1        3 0.11025770E-01 0.27649727E+03</pdfrwt>
<pdfrwt beam="2">  1       -3 0.41028539E-01 0.27649727E+03</pdfrwt>
<totfact> 0.94226877E+02</totfact>
</mgrwt>
</event>
<event>
 5    1  0.1139158E+001  0.2766693E+03  0.7818608E-02  0.1097522E+00
         -2   -1    0    0    0  501 -0.00000000000E+00  0.00000000000E+00  0.21187369819E+02  0.21187369819E+02  0.00000000000E+00 0.  1.
          2   -1    0    0  501    0  0.00000000000E+00 -0.00000000000E+00 -0.90320176111E+03  0.90320176111E+03  0.00000000000E+00 0.  1.
         35    2    1    2    0    0  0.00000000000E+00  0.00000000000E+00 -0.88201439129E+03  0.92438913093E+03  0.27666925911E+03 0.  0.
         25    1    3    3    0    0  0.45247116020E+02  0.50241754460E+02 -0.39809809032E+03  0.42125244796E+03  0.12000000000E+03 0.  0.
         25    1    3    3    0    0 -0.45247116020E+02 -0.50241754460E+02 -0.48391630098E+03  0.50313668297E+03  0.12000000000E+03 0.  0.
<mgrwt>
<rscale>  0 0.27666926E+03</rscale>
<asrwt>0</asrwt>
<pdfrwt beam="1">  1        2 0.13895413E+00 0.27666926E+03</pdfrwt>
<pdfrwt beam="2">  1       -2 0.32595951E-02 0.27666926E+03</pdfrwt>
<totfact> 0.11279847E+04</totfact>
</mgrwt>
</event>
<event>
 5    1  0.1139158E+001  0.2750363E+03  0.7818608E-02  0.1098431E+00
          4   -1    0    0  501    0  0.00000000000E+00  0.00000000000E+00  0.16765631287E+02  0.16765631287E+02  0.00000000000E+00 0.  1.
         -4   -1    0    0    0  501 -0.00000000000E+00 -0.00000000000E+00 -0.11279763648E+04  0.11279763648E+04  0.00000000000E+00 0.  1.
         35    2    1    2    0    0  0.00000000000E+00  0.00000000000E+00 -0.11112107335E+04  0.11447419960E+04  0.27503625820E+03 0.  0.
         25    1    3    3    0    0  0.12598886259E+02 -0.63125457728E+02 -0.47579616743E+03  0.49489953353E+03  0.12000000000E+03 0.  0.
         25    1    3    3    0    0 -0.12598886259E+02  0.63125457728E+02 -0.63541456603E+03  0.64984246251E+03  0.12000000000E+03 0.  0.
<mgrwt>
<rscale>  0 0.27503626E+03</rscale>
<asrwt>0</asrwt>
<pdfrwt beam="1">  1        4 0.25793272E-02 0.27503626E+03</pdfrwt>
<pdfrwt beam="2">  1       -4 0.17353487E+00 0.27503626E+03</pdfrwt>
<totfact> 0.27483402E+02</totfact>
</mgrwt>
</event>
<event>
 5    1  0.1139158E+001  0.2749245E+03  0.7818608E-02  0.1098494E+00
          2   -1    0    0  501    0  0.00000000000E+00  0.00000000000E+00  0.49728959349E+03  0.49728959349E+03  0.00000000000E+00 0. -1.
         -2   -1    0    0    0  501 -0.00000000000E+00 -0.00000000000E+00 -0.37997723145E+02  0.37997723145E+02  0.00000000000E+00 0. -1.
         35    2    1    2    0    0  0.00000000000E+00  0.00000000000E+00  0.45929187035E+03  0.53528731664E+03  0.27492451543E+03 0.  0.
         25    1    3    3    0    0  0.65303113560E+02 -0.55708760880E+01  0.25720461432E+03  0.29128979544E+03  0.12000000000E+03 0.  0.
         25    1    3    3    0    0 -0.65303113560E+02  0.55708760880E+01  0.20208725602E+03  0.24399752119E+03  0.12000000000E+03 0.  0.
<mgrwt>
<rscale>  0 0.27492452E+03</rscale>
<asrwt>0</asrwt>
<pdfrwt beam="1">  1        2 0.76506087E-01 0.27492452E+03</pdfrwt>
<pdfrwt beam="2">  1       -2 0.58458039E-02 0.27492452E+03</pdfrwt>
<totfact> 0.95941879E+03</totfact>
</mgrwt>
</event>
<event>
 5    1  0.1139158E+001  0.2759499E+03  0.7818608E-02  0.1097922E+00
          3   -1    0    0  501    0  0.00000000000E+00  0.00000000000E+00  0.15898886205E+04  0.15898886205E+04  0.00000000000E+00 0.  1.
         -3   -1    0    0    0  501 -0.00000000000E+00 -0.00000000000E+00 -0.11973850516E+02  0.11973850516E+02  0.00000000000E+00 0.  1.
         35    2    1    2    0    0  0.00000000000E+00  0.00000000000E+00  0.15779147700E+04  0.16018624711E+04  0.27594991342E+03 0.  0.
         25    1    3    3    0    0  0.55182527753E+02  0.20497132045E+02  0.98767210060E+03  0.99667518385E+03  0.12000000000E+03 0.  0.
         25    1    3    3    0    0 -0.55182527753E+02 -0.20497132045E+02  0.59024266942E+03  0.60518728720E+03  0.12000000000E+03 0.  0.
<mgrwt>
<rscale>  0 0.27594991E+03</rscale>
<asrwt>0</asrwt>
<pdfrwt beam="1">  1        3 0.24459808E+00 0.27594991E+03</pdfrwt>
<pdfrwt beam="2">  1       -3 0.18421321E-02 0.27594991E+03</pdfrwt>
<totfact> 0.24265200E+02</totfact>
</mgrwt>
</event>
<event>
 5    1  0.1139158E+001  0.2752263E+03  0.7818608E-02  0.1098325E+00
          1   -1    0    0  501    0  0.00000000000E+00  0.00000000000E+00  0.10128012111E+04  0.10128012111E+04  0.00000000000E+00 0.  1.
         -1   -1    0    0    0  501 -0.00000000000E+00 -0.00000000000E+00 -0.18698018977E+02  0.18698018977E+02  0.00000000000E+00 0.  1.
         35    2    1    2    0    0  0.00000000000E+00  0.00000000000E+00  0.99410319215E+03  0.10314992301E+04  0.27522627975E+03 0.  0.
         25    1    3    3    0    0  0.87408851252E+01 -0.38943723269E+02  0.70041576405E+03  0.71174100569E+03  0.12000000000E+03 0.  0.
         25    1    3    3    0    0 -0.87408851252E+01  0.38943723269E+02  0.29368742810E+03  0.31975822441E+03  0.12000000000E+03 0.  0.
<mgrwt>
<rscale>  0 0.27522628E+03</rscale>
<asrwt>0</asrwt>
<pdfrwt beam="1">  1        1 0.15581553E+00 0.27522628E+03</pdfrwt>
<pdfrwt beam="2">  1       -1 0.28766191E-02 0.27522628E+03</pdfrwt>
<totfact> 0.62744080E+03</totfact>
</mgrwt>
</event>
<event>
 5    1  0.1139158E+001  0.2761191E+03  0.7818608E-02  0.1097828E+00
         -1   -1    0    0    0  501 -0.00000000000E+00  0.00000000000E+00  0.13054423273E+03  0.13054423273E+03  0.00000000000E+00 0.  1.
          1   -1    0    0  501    0  0.00000000000E+00 -0.00000000000E+00 -0.14600754651E+03  0.14600754651E+03  0.00000000000E+00 0.  1.
         35    2    1    2    0    0  0.00000000000E+00  0.00000000000E+00 -0.15463313786E+02  0.27655177924E+03  0.27611912742E+03 0.  0.
         25    1    3    3    0    0 -0.46709937787E+02  0.23746664141E+02 -0.51557743296E+02  0.14072641273E+03  0.12000000000E+03 0.  0.
         25    1    3    3    0    0  0.46709937787E+02 -0.23746664141E+02  0.36094429510E+02  0.13582536651E+03  0.12000000000E+03 0.  0.
<mgrwt>
<rscale>  0 0.27611913E+03</rscale>
<asrwt>0</asrwt>
<pdfrwt beam="1">  1        1 0.22462700E-01 0.27611913E+03</pdfrwt>
<pdfrwt beam="2">  1       -1 0.20083728E-01 0.27611913E+03</pdfrwt>
<totfact> 0.43715611E+03</totfact>
</mgrwt>
</event>
<event>
 5    1  0.1139158E+001  0.2750780E+03  0.7818608E-02  0.1098408E+00
         -2   -1    0    0    0  501 -0.00000000000E+00  0.00000000000E+00  0.15743239353E+02  0.15743239353E+02  0.00000000000E+00 0.  1.
          2   -1    0    0  501    0  0.00000000000E+00 -0.00000000000E+00 -0.12015938391E+04  0.12015938391E+04  0.00000000000E+00 0.  1.
         35    2    1    2    0    0  0.00000000000E+00  0.00000000000E+00 -0.11858505998E+04  0.12173370785E+04  0.27507802104E+03 0.  0.
         25    1    3    3    0    0  0.17300521396E+02  0.10329027767E+02 -0.30918058817E+03  0.33226289735E+03  0.12000000000E+03 0.  0.
         25    1    3    3    0    0 -0.17300521396E+02 -0.10329027767E+02 -0.87667001160E+03  0.88507418113E+03  0.12000000000E+03 0.  0.
<mgrwt>
<rscale>  0 0.27507802E+03</rscale>
<asrwt>0</asrwt>
<pdfrwt beam="1">  1        2 0.18486065E+00 0.27507802E+03</pdfrwt>
<pdfrwt beam="2">  1       -2 0.24220360E-02 0.27507802E+03</pdfrwt>
<totfact> 0.11599173E+04</totfact>
</mgrwt>
</event>
<event>
 5    1  0.1139158E+001  0.2741226E+03  0.7818608E-02  0.1098943E+00
          2   -1    0    0  501    0  0.00000000000E+00  0.00000000000E+00  0.68800888158E+03  0.68800888158E+03  0.00000000000E+00 0.  1.
         -2   -1    0    0    0  501 -0.00000000000E+00 -0.00000000000E+00 -0.27304599199E+02  0.27304599199E+02  0.00000000000E+00 0.  1.
         35    2    1    2    0    0  0.00000000000E+00  0.00000000000E+00  0.66070428238E+03  0.71531348078E+03  0.27412264961E+03 0.  0.
         25    1    3    3    0    0 -0.15759883266E+02  0.47863661334E+02  0.44248334107E+03  0.46122750474E+03  0.12000000000E+03 0.  0.
         25    1    3    3    0    0  0.15759883266E+02 -0.47863661334E+02  0.21822094130E+03  0.25408597604E+03  0.12000000000E+03 0.  0.
<mgrwt>
<rscale>  0 0.27412265E+03</rscale>
<asrwt>0</asrwt>
<pdfrwt beam="1">  1        2 0.10584751E+00 0.27412265E+03</pdfrwt>
<pdfrwt beam="2">  1       -2 0.42007081E-02 0.27412265E+03</pdfrwt>
<totfact> 0.10886108E+04</totfact>
</mgrwt>
</event>
<event>
 5    1  0.1139158E+001  0.2756821E+03  0.7818608E-02  0.1098071E+00
          1   -1    0    0  501    0  0.00000000000E+00  0.00000000000E+00  0.49668212052E+03  0.49668212052E+03  0.00000000000E+00 0.  1.
         -1   -1    0    0    0  501 -0.00000000000E+00 -0.00000000000E+00 -0.38254159844E+02  0.38254159844E+02  0.00000000000E+00 0.  1.
         35    2    1    2    0    0  0.00000000000E+00  0.00000000000E+00  0.45842796068E+03  0.53493628037E+03  0.27568211571E+03 0.  0.
         25    1    3    3    0    0  0.46174416629E+02 -0.15752074230E+02  0.13778890754E+03  0.18911897746E+03  0.12000000000E+03 0.  0.
         25    1    3    3    0    0 -0.46174416629E+02  0.15752074230E+02  0.32063905313E+03  0.34581730291E+03  0.12000000000E+03 0.  0.
<mgrwt>
<rscale>  0 0.27568212E+03</rscale>
<asrwt>0</asrwt>
<pdfrwt beam="1">  1        1 0.76412629E-01 0.27568212E+03</pdfrwt>
<pdfrwt beam="2">  1       -1 0.58852557E-02 0.27568212E+03</pdfrwt>
<totfact> 0.62391799E+03</totfact>
</mgrwt>
</event>
<event>
 5    1  0.1139158E+001  0.2756659E+03  0.7818608E-02  0.1098080E+00
          2   -1    0    0  501    0  0.00000000000E+00  0.00000000000E+00  0.11759416888E+03  0.11759416888E+03  0.00000000000E+00 0.  1.
         -2   -1    0    0    0  501 -0.00000000000E+00 -0.00000000000E+00 -0.16155492083E+03  0.16155492083E+03  0.00000000000E+00 0.  1.
         35    2    1    2    0    0  0.00000000000E+00  0.00000000000E+00 -0.43960751951E+02  0.27914908972E+03  0.27566586038E+03 0.  0.
         25    1    3    3    0    0 -0.45867699526E+01 -0.21701403884E+02 -0.86867549498E+02  0.14979305907E+03  0.12000000000E+03 0.  0.
         25    1    3    3    0    0  0.45867699526E+01  0.21701403884E+02  0.42906797547E+02  0.12935603065E+03  0.12000000000E+03 0.  0.
<mgrwt>
<rscale>  0 0.27566586E+03</rscale>
<asrwt>0</asrwt>
<pdfrwt beam="1">  1        2 0.18091411E-01 0.27566586E+03</pdfrwt>
<pdfrwt beam="2">  1       -2 0.24854603E-01 0.27566586E+03</pdfrwt>
<totfact> 0.44554248E+03</totfact>
</mgrwt>
</event>
<event>
 5    1  0.1139158E+001  0.2757008E+03  0.7818608E-02  0.1098061E+00
         -2   -1    0    0    0  501 -0.00000000000E+00  0.00000000000E+00  0.12465395736E+02  0.12465395736E+02  0.00000000000E+00 0. -1.
          2   -1    0    0  501    0  0.00000000000E+00 -0.00000000000E+00 -0.15244388948E+04  0.15244388948E+04  0.00000000000E+00 0. -1.
         35    2    1    2    0    0  0.00000000000E+00  0.00000000000E+00 -0.15119734990E+04  0.15369042905E+04  0.27570080956E+03 0.  0.
         25    1    3    3    0    0  0.22279546512E+01  0.37389546955E+02 -0.44065357554E+03  0.45823412754E+03  0.12000000000E+03 0.  0.
         25    1    3    3    0    0 -0.22279546512E+01 -0.37389546955E+02 -0.10713199235E+04  0.10786701630E+04  0.12000000000E+03 0.  0.
<mgrwt>
<rscale>  0 0.27570081E+03</rscale>
<asrwt>0</asrwt>
<pdfrwt beam="1">  1        2 0.23452910E+00 0.27570081E+03</pdfrwt>
<pdfrwt beam="2">  1       -2 0.19177528E-02 0.27570081E+03</pdfrwt>
<totfact> 0.10888360E+04</totfact>
</mgrwt>
</event>
<event>
 5    1  0.1139158E+001  0.2746710E+03  0.7818608E-02  0.1098636E+00
          2   -1    0    0  501    0  0.00000000000E+00  0.00000000000E+00  0.88019884201E+03  0.88019884201E+03  0.00000000000E+00 0. -1.
         -2   -1    0    0    0  501 -0.00000000000E+00 -0.00000000000E+00 -0.21428158889E+02  0.21428158889E+02  0.00000000000E+00 0. -1.
         35    2    1    2    0    0  0.00000000000E+00  0.00000000000E+00  0.85877068312E+03  0.90162700090E+03  0.27467100786E+03 0.  0.
         25    1    3    3    0    0  0.26780279965E+02 -0.17742119176E+02  0.62160709973E+03  0.63389853496E+03  0.12000000000E+03 0.  0.
         25    1    3    3    0    0 -0.26780279965E+02  0.17742119176E+02  0.23716358339E+03  0.26772846594E+03  0.12000000000E+03 0.  0.
<mgrwt>
<rscale>  0 0.27467101E+03</rscale>
<asrwt>0</asrwt>
<pdfrwt beam="1">  1        2 0.13541518E+00 0.27467101E+03</pdfrwt>
<pdfrwt beam="2">  1       -2 0.32966405E-02 0.27467101E+03</pdfrwt>
<totfact> 0.11476459E+04</totfact>
</mgrwt>
</event>
<event>
 5    1  0.1139158E+001  0.2665962E+03  0.7818608E-02  0.1103244E+00
          3   -1    0    0  501    0  0.00000000000E+00  0.00000000000E+00  0.43830290676E+02  0.43830290676E+02  0.00000000000E+00 0.  1.
         -3   -1    0    0    0  501 -0.00000000000E+00 -0.00000000000E+00 -0.40539039144E+03  0.40539039144E+03  0.00000000000E+00 0.  1.
         35    2    1    2    0    0  0.00000000000E+00  0.00000000000E+00 -0.36156010077E+03  0.44922068212E+03  0.26659616422E+03 0.  0.
         25    1    3    3    0    0  0.28876613623E+02 -0.11922258282E+02 -0.26319782714E+03  0.29094517571E+03  0.12000000000E+03 0.  0.
         25    1    3    3    0    0 -0.28876613623E+02  0.11922258282E+02 -0.98362273632E+02  0.15827550641E+03  0.12000000000E+03 0.  0.
<mgrwt>
<rscale>  0 0.26659616E+03</rscale>
<asrwt>0</asrwt>
<pdfrwt beam="1">  1        3 0.67431218E-02 0.26659616E+03</pdfrwt>
<pdfrwt beam="2">  1       -3 0.62367751E-01 0.26659616E+03</pdfrwt>
<totfact> 0.90678099E+02</totfact>
</mgrwt>
</event>
<event>
 5    1  0.1139158E+001  0.2749263E+03  0.7818608E-02  0.1098493E+00
         -2   -1    0    0    0  501 -0.00000000000E+00  0.00000000000E+00  0.41130170654E+02  0.41130170654E+02  0.00000000000E+00 0. -1.
          2   -1    0    0  501    0  0.00000000000E+00 -0.00000000000E+00 -0.45942231773E+03  0.45942231773E+03  0.00000000000E+00 0. -1.
         35    2    1    2    0    0  0.00000000000E+00  0.00000000000E+00 -0.41829214708E+03  0.50055248838E+03  0.27492630526E+03 0.  0.
         25    1    3    3    0    0  0.11564080154E+02 -0.48195121432E+02 -0.12692028835E+03  0.18156336986E+03  0.12000000000E+03 0.  0.
         25    1    3    3    0    0 -0.11564080154E+02  0.48195121432E+02 -0.29137185873E+03  0.31898911853E+03  0.12000000000E+03 0.  0.
<mgrwt>
<rscale>  0 0.27492631E+03</rscale>
<asrwt>0</asrwt>
<pdfrwt beam="1">  1        2 0.70680361E-01 0.27492631E+03</pdfrwt>
<pdfrwt beam="2">  1       -2 0.63277182E-02 0.27492631E+03</pdfrwt>
<totfact> 0.92766616E+03</totfact>
</mgrwt>
</event>
<event>
 5    1  0.1139158E+001  0.2746040E+03  0.7818608E-02  0.1098673E+00
          1   -1    0    0  501    0  0.00000000000E+00  0.00000000000E+00  0.16485387114E+03  0.16485387114E+03  0.00000000000E+00 0.  1.
         -1   -1    0    0    0  501 -0.00000000000E+00 -0.00000000000E+00 -0.11435487921E+03  0.11435487921E+03  0.00000000000E+00 0.  1.
         35    2    1    2    0    0  0.00000000000E+00  0.00000000000E+00  0.50498991933E+02  0.27920875036E+03  0.27460403873E+03 0.  0.
         25    1    3    3    0    0 -0.91556379209E+01 -0.55013164473E+02 -0.11992149623E+02  0.13286867811E+03  0.12000000000E+03 0.  0.
         25    1    3    3    0    0  0.91556379209E+01  0.55013164473E+02  0.62491141556E+02  0.14634007224E+03  0.12000000000E+03 0.  0.
<mgrwt>
<rscale>  0 0.27460404E+03</rscale>
<asrwt>0</asrwt>
<pdfrwt beam="1">  1        1 0.25362134E-01 0.27460404E+03</pdfrwt>
<pdfrwt beam="2">  1       -1 0.17593058E-01 0.27460404E+03</pdfrwt>
<totfact> 0.46370971E+03</totfact>
</mgrwt>
</event>
<event>
 5    1  0.1139158E+001  0.2754959E+03  0.7818608E-02  0.1098175E+00
          2   -1    0    0  501    0  0.00000000000E+00  0.00000000000E+00  0.24122350306E+04  0.24122350306E+04  0.00000000000E+00 0. -1.
         -2   -1    0    0    0  501 -0.00000000000E+00 -0.00000000000E+00 -0.78659387742E+01  0.78659387742E+01  0.00000000000E+00 0. -1.
         35    2    1    2    0    0  0.00000000000E+00  0.00000000000E+00  0.24043690919E+04  0.24201009694E+04  0.27549586610E+03 0.  0.
         25    1    3    3    0    0  0.13089281543E+02  0.25462409340E+02  0.66389802051E+03  0.67526309333E+03  0.12000000000E+03 0.  0.
         25    1    3    3    0    0 -0.13089281543E+02 -0.25462409340E+02  0.17404710714E+04  0.17448378761E+04  0.12000000000E+03 0.  0.
<mgrwt>
<rscale>  0 0.27549587E+03</rscale>
<asrwt>0</asrwt>
<pdfrwt beam="1">  1        2 0.37111249E+00 0.27549587E+03</pdfrwt>
<pdfrwt beam="2">  1       -2 0.12101464E-02 0.27549587E+03</pdfrwt>
<totfact> 0.72318759E+03</totfact>
</mgrwt>
</event>
<event>
 5    1  0.1139158E+001  0.2736845E+03  0.7818608E-02  0.1099189E+00
         -1   -1    0    0    0  501 -0.00000000000E+00  0.00000000000E+00  0.61450396685E+02  0.61450396685E+02  0.00000000000E+00 0. -1.
          1   -1    0    0  501    0  0.00000000000E+00 -0.00000000000E+00 -0.30473044270E+03  0.30473044270E+03  0.00000000000E+00 0. -1.
         35    2    1    2    0    0  0.00000000000E+00  0.00000000000E+00 -0.24328004601E+03  0.36618083938E+03  0.27368453801E+03 0.  0.
         25    1    3    3    0    0 -0.25741160261E+02 -0.17159347269E+02 -0.43983107762E+02  0.13149739274E+03  0.12000000000E+03 0.  0.
         25    1    3    3    0    0  0.25741160261E+02  0.17159347269E+02 -0.19929693825E+03  0.23468344664E+03  0.12000000000E+03 0.  0.
<mgrwt>
<rscale>  0 0.27368454E+03</rscale>
<asrwt>0</asrwt>
<pdfrwt beam="1">  1        1 0.46881606E-01 0.27368454E+03</pdfrwt>
<pdfrwt beam="2">  1       -1 0.94539072E-02 0.27368454E+03</pdfrwt>
<totfact> 0.56741817E+03</totfact>
</mgrwt>
</event>
<event>
 5    1  0.1139158E+001  0.2742832E+03  0.7818608E-02  0.1098853E+00
          1   -1    0    0  501    0  0.00000000000E+00  0.00000000000E+00  0.16198513397E+04  0.16198513397E+04  0.00000000000E+00 0. -1.
         -1   -1    0    0    0  501 -0.00000000000E+00 -0.00000000000E+00 -0.11610833499E+02  0.11610833499E+02  0.00000000000E+00 0. -1.
         35    2    1    2    0    0  0.00000000000E+00  0.00000000000E+00  0.16082405062E+04  0.16314621732E+04  0.27428324191E+03 0.  0.
         25    1    3    3    0    0  0.61753433715E+02  0.23746566874E+02  0.83693636380E+03  0.84808010416E+03  0.12000000000E+03 0.  0.
         25    1    3    3    0    0 -0.61753433715E+02 -0.23746566874E+02  0.77130414237E+03  0.78338206901E+03  0.12000000000E+03 0.  0.
<mgrwt>
<rscale>  0 0.27428324E+03</rscale>
<asrwt>0</asrwt>
<pdfrwt beam="1">  1        1 0.24920772E+00 0.27428324E+03</pdfrwt>
<pdfrwt beam="2">  1       -1 0.17862834E-02 0.27428324E+03</pdfrwt>
<totfact> 0.48255866E+03</totfact>
</mgrwt>
</event>
<event>
 5    1  0.1139158E+001  0.2754085E+03  0.7818608E-02  0.1098223E+00
          2   -1    0    0  501    0  0.00000000000E+00  0.00000000000E+00  0.17616017062E+04  0.17616017062E+04  0.00000000000E+00 0. -1.
         -2   -1    0    0    0  501 -0.00000000000E+00 -0.00000000000E+00 -0.10764326604E+02  0.10764326604E+02  0.00000000000E+00 0. -1.
         35    2    1    2    0    0  0.00000000000E+00  0.00000000000E+00  0.17508373796E+04  0.17723660328E+04  0.27540846837E+03 0.  0.
         25    1    3    3    0    0 -0.11739488722E+02 -0.16601326960E+02  0.12899427600E+04  0.12956719275E+04  0.12000000000E+03 0.  0.
         25    1    3    3    0    0  0.11739488722E+02  0.16601326960E+02  0.46089461957E+03  0.47669410528E+03  0.12000000000E+03 0.  0.
<mgrwt>
<rscale>  0 0.27540847E+03</rscale>
<asrwt>0</asrwt>
<pdfrwt beam="1">  1        2 0.27101542E+00 0.27540847E+03</pdfrwt>
<pdfrwt beam="2">  1       -2 0.16560516E-02 0.27540847E+03</pdfrwt>
<totfact> 0.10117278E+04</totfact>
</mgrwt>
</event>
<event>
 5    1  0.1139158E+001  0.2754575E+03  0.7818608E-02  0.1098196E+00
         -2   -1    0    0    0  501 -0.00000000000E+00  0.00000000000E+00  0.15273220222E+04  0.15273220222E+04  0.00000000000E+00 0. -1.
          2   -1    0    0  501    0  0.00000000000E+00 -0.00000000000E+00 -0.12419912688E+02  0.12419912688E+02  0.00000000000E+00 0. -1.
         35    2    1    2    0    0  0.00000000000E+00  0.00000000000E+00  0.15149021095E+04  0.15397419349E+04  0.27545748247E+03 0.  0.
         25    1    3    3    0    0  0.19713123751E+02  0.39074148131E+02  0.10454084695E+04  0.10531829206E+04  0.12000000000E+03 0.  0.
         25    1    3    3    0    0 -0.19713123751E+02 -0.39074148131E+02  0.46949364002E+03  0.48655901422E+03  0.12000000000E+03 0.  0.
<mgrwt>
<rscale>  0 0.27545748E+03</rscale>
<asrwt>0</asrwt>
<pdfrwt beam="1">  1        2 0.19107570E-02 0.27545748E+03</pdfrwt>
<pdfrwt beam="2">  1       -2 0.23497247E+00 0.27545748E+03</pdfrwt>
<totfact> 0.51370670E+02</totfact>
</mgrwt>
</event>
<event>
 5    1  0.1139158E+001  0.2755426E+03  0.7818608E-02  0.1098149E+00
          2   -1    0    0  501    0  0.00000000000E+00  0.00000000000E+00  0.56574592638E+03  0.56574592638E+03  0.00000000000E+00 0. -1.
         -2   -1    0    0    0  501 -0.00000000000E+00 -0.00000000000E+00 -0.33550280746E+02  0.33550280746E+02  0.00000000000E+00 0. -1.
         35    2    1    2    0    0  0.00000000000E+00  0.00000000000E+00  0.53219564564E+03  0.59929620713E+03  0.27554262582E+03 0.  0.
         25    1    3    3    0    0  0.63832092291E+02 -0.75743724039E+01  0.22000967828E+03  0.25872024594E+03  0.12000000000E+03 0.  0.
         25    1    3    3    0    0 -0.63832092291E+02  0.75743724039E+01  0.31218596736E+03  0.34057596119E+03  0.12000000000E+03 0.  0.
<mgrwt>
<rscale>  0 0.27554263E+03</rscale>
<asrwt>0</asrwt>
<pdfrwt beam="1">  1        2 0.87037828E-01 0.27554263E+03</pdfrwt>
<pdfrwt beam="2">  1       -2 0.51615821E-02 0.27554263E+03</pdfrwt>
<totfact> 0.10028599E+04</totfact>
</mgrwt>
</event>
<event>
 5    1  0.1139158E+001  0.2742957E+03  0.7818608E-02  0.1098846E+00
         -3   -1    0    0    0  501 -0.00000000000E+00  0.00000000000E+00  0.16043603433E+04  0.16043603433E+04  0.00000000000E+00 0.  1.
          3   -1    0    0  501    0  0.00000000000E+00 -0.00000000000E+00 -0.11724009457E+02  0.11724009457E+02  0.00000000000E+00 0.  1.
         35    2    1    2    0    0  0.00000000000E+00  0.00000000000E+00  0.15926363338E+04  0.16160843527E+04  0.27429572244E+03 0.  0.
         25    1    3    3    0    0 -0.68169780856E+01 -0.25908650575E+02  0.43833347661E+03  0.45525154154E+03  0.12000000000E+03 0.  0.
         25    1    3    3    0    0  0.68169780856E+01  0.25908650575E+02  0.11543028572E+04  0.11608328112E+04  0.12000000000E+03 0.  0.
<mgrwt>
<rscale>  0 0.27429572E+03</rscale>
<asrwt>0</asrwt>
<pdfrwt beam="1">  1        3 0.18036950E-02 0.27429572E+03</pdfrwt>
<pdfrwt beam="2">  1       -3 0.24682449E+00 0.27429572E+03</pdfrwt>
<totfact> 0.24109842E+02</totfact>
</mgrwt>
</event>
<event>
 5    1  0.1139158E+001  0.2768791E+03  0.7818608E-02  0.1097406E+00
          3   -1    0    0  501    0  0.00000000000E+00  0.00000000000E+00  0.54254966191E+03  0.54254966191E+03  0.00000000000E+00 0.  1.
         -3   -1    0    0    0  501 -0.00000000000E+00 -0.00000000000E+00 -0.35324895770E+02  0.35324895770E+02  0.00000000000E+00 0.  1.
         35    2    1    2    0    0  0.00000000000E+00  0.00000000000E+00  0.50722476614E+03  0.57787455768E+03  0.27687910905E+03 0.  0.
         25    1    3    3    0    0 -0.35332613108E+02 -0.40514923970E+02  0.16322242793E+03  0.20959821944E+03  0.12000000000E+03 0.  0.
         25    1    3    3    0    0  0.35332613108E+02  0.40514923970E+02  0.34400233821E+03  0.36827633824E+03  0.12000000000E+03 0.  0.
<mgrwt>
<rscale>  0 0.27687911E+03</rscale>
<asrwt>0</asrwt>
<pdfrwt beam="1">  1        3 0.83469173E-01 0.27687911E+03</pdfrwt>
<pdfrwt beam="2">  1       -3 0.54345997E-02 0.27687911E+03</pdfrwt>
<totfact> 0.68964260E+02</totfact>
</mgrwt>
</event>
<event>
 5    1  0.1139158E+001  0.2851768E+03  0.7818608E-02  0.1092895E+00
          1   -1    0    0  501    0  0.00000000000E+00  0.00000000000E+00  0.13431426183E+02  0.13431426183E+02  0.00000000000E+00 0.  1.
         -1   -1    0    0    0  501 -0.00000000000E+00 -0.00000000000E+00 -0.15137223210E+04  0.15137223210E+04  0.00000000000E+00 0.  1.
         35    2    1    2    0    0  0.00000000000E+00  0.00000000000E+00 -0.15002908949E+04  0.15271537472E+04  0.28517678459E+03 0.  0.
         25    1    3    3    0    0  0.55222942843E+02  0.13458444406E+02 -0.10284437152E+04  0.10369798351E+04  0.12000000000E+03 0.  0.
         25    1    3    3    0    0 -0.55222942843E+02 -0.13458444406E+02 -0.47184717967E+03  0.49017391210E+03  0.12000000000E+03 0.  0.
<mgrwt>
<rscale>  0 0.28517678E+03</rscale>
<asrwt>0</asrwt>
<pdfrwt beam="1">  1        1 0.20663720E-02 0.28517678E+03</pdfrwt>
<pdfrwt beam="2">  1       -1 0.23288050E+00 0.28517678E+03</pdfrwt>
<totfact> 0.58855455E+02</totfact>
</mgrwt>
</event>
<event>
 5    1  0.1139158E+001  0.2752438E+03  0.7818608E-02  0.1098315E+00
         -2   -1    0    0    0  501 -0.00000000000E+00  0.00000000000E+00  0.29764813377E+02  0.29764813377E+02  0.00000000000E+00 0. -1.
          2   -1    0    0  501    0  0.00000000000E+00 -0.00000000000E+00 -0.63631478759E+03  0.63631478759E+03  0.00000000000E+00 0. -1.
         35    2    1    2    0    0  0.00000000000E+00  0.00000000000E+00 -0.60654997422E+03  0.66607960097E+03  0.27524382574E+03 0.  0.
         25    1    3    3    0    0 -0.30080616265E+02  0.58887742756E+02 -0.33456474775E+03  0.36153309691E+03  0.12000000000E+03 0.  0.
         25    1    3    3    0    0  0.30080616265E+02 -0.58887742756E+02 -0.27198522646E+03  0.30454650406E+03  0.12000000000E+03 0.  0.
<mgrwt>
<rscale>  0 0.27524383E+03</rscale>
<asrwt>0</asrwt>
<pdfrwt beam="1">  1        2 0.97894573E-01 0.27524383E+03</pdfrwt>
<pdfrwt beam="2">  1       -2 0.45792025E-02 0.27524383E+03</pdfrwt>
<totfact> 0.10490924E+04</totfact>
</mgrwt>
</event>
<event>
 5    1  0.1139158E+001  0.2749801E+03  0.7818608E-02  0.1098463E+00
         -2   -1    0    0    0  501 -0.00000000000E+00  0.00000000000E+00  0.52364132240E+02  0.52364132240E+02  0.00000000000E+00 0.  1.
          2   -1    0    0  501    0  0.00000000000E+00 -0.00000000000E+00 -0.36100129228E+03  0.36100129228E+03  0.00000000000E+00 0.  1.
         35    2    1    2    0    0  0.00000000000E+00  0.00000000000E+00 -0.30863716004E+03  0.41336542452E+03  0.27498014043E+03 0.  0.
         25    1    3    3    0    0 -0.22994987494E+02  0.13085302325E+02 -0.61608715659E+02  0.13746137069E+03  0.12000000000E+03 0.  0.
         25    1    3    3    0    0  0.22994987494E+02 -0.13085302325E+02 -0.24702844438E+03  0.27590405383E+03  0.12000000000E+03 0.  0.
<mgrwt>
<rscale>  0 0.27498014E+03</rscale>
<asrwt>0</asrwt>
<pdfrwt beam="1">  1        2 0.55538658E-01 0.27498014E+03</pdfrwt>
<pdfrwt beam="2">  1       -2 0.80560206E-02 0.27498014E+03</pdfrwt>
<totfact> 0.82964284E+03</totfact>
</mgrwt>
</event>
<event>
 5    1  0.1139158E+001  0.2758414E+03  0.7818608E-02  0.1097982E+00
         -2   -1    0    0    0  501 -0.00000000000E+00  0.00000000000E+00  0.80377866640E+01  0.80377866640E+01  0.00000000000E+00 0.  1.
          2   -1    0    0  501    0  0.00000000000E+00 -0.00000000000E+00 -0.23665873768E+04  0.23665873768E+04  0.00000000000E+00 0.  1.
         35    2    1    2    0    0  0.00000000000E+00  0.00000000000E+00 -0.23585495902E+04  0.23746251635E+04  0.27584143602E+03 0.  0.
         25    1    3    3    0    0 -0.45794535420E+02  0.49638170067E+02 -0.12465309980E+04  0.12541134783E+04  0.12000000000E+03 0.  0.
         25    1    3    3    0    0  0.45794535420E+02 -0.49638170067E+02 -0.11120185921E+04  0.11205116852E+04  0.12000000000E+03 0.  0.
<mgrwt>
<rscale>  0 0.27584144E+03</rscale>
<asrwt>0</asrwt>
<pdfrwt beam="1">  1        2 0.36408970E+00 0.27584144E+03</pdfrwt>
<pdfrwt beam="2">  1       -2 0.12365848E-02 0.27584144E+03</pdfrwt>
<totfact> 0.74178010E+03</totfact>
</mgrwt>
</event>
<event>
 5    1  0.1139158E+001  0.2745716E+03  0.7818608E-02  0.1098691E+00
         -2   -1    0    0    0  501 -0.00000000000E+00  0.00000000000E+00  0.28579436705E+02  0.28579436705E+02  0.00000000000E+00 0. -1.
          2   -1    0    0  501    0  0.00000000000E+00 -0.00000000000E+00 -0.65947367084E+03  0.65947367084E+03  0.00000000000E+00 0. -1.
         35    2    1    2    0    0  0.00000000000E+00  0.00000000000E+00 -0.63089423413E+03  0.68805310754E+03  0.27457156469E+03 0.  0.
         25    1    3    3    0    0 -0.12491642619E+02 -0.39141339332E+02 -0.44708045623E+03  0.46472467109E+03  0.12000000000E+03 0.  0.
         25    1    3    3    0    0  0.12491642619E+02  0.39141339332E+02 -0.18381377790E+03  0.22332843645E+03  0.12000000000E+03 0.  0.
<mgrwt>
<rscale>  0 0.27457156E+03</rscale>
<asrwt>0</asrwt>
<pdfrwt beam="1">  1        2 0.10145748E+00 0.27457156E+03</pdfrwt>
<pdfrwt beam="2">  1       -2 0.43968366E-02 0.27457156E+03</pdfrwt>
<totfact> 0.10691872E+04</totfact>
</mgrwt>
</event>
<event>
 5    1  0.1139158E+001  0.2783516E+03  0.7818608E-02  0.1096593E+00
          1   -1    0    0  501    0  0.00000000000E+00  0.00000000000E+00  0.43521319858E+03  0.43521319858E+03  0.00000000000E+00 0.  1.
         -1   -1    0    0    0  501 -0.00000000000E+00 -0.00000000000E+00 -0.44506703661E+02  0.44506703661E+02  0.00000000000E+00 0.  1.
         35    2    1    2    0    0  0.00000000000E+00  0.00000000000E+00  0.39070649492E+03  0.47971990224E+03  0.27835161116E+03 0.  0.
         25    1    3    3    0    0 -0.38277928988E+02 -0.58814485063E+02  0.18372023144E+03  0.23038547467E+03  0.12000000000E+03 0.  0.
         25    1    3    3    0    0  0.38277928988E+02  0.58814485063E+02  0.20698626349E+03  0.24933442757E+03  0.12000000000E+03 0.  0.
<mgrwt>
<rscale>  0 0.27835161E+03</rscale>
<asrwt>0</asrwt>
<pdfrwt beam="1">  1        1 0.66955874E-01 0.27835161E+03</pdfrwt>
<pdfrwt beam="2">  1       -1 0.68471855E-02 0.27835161E+03</pdfrwt>
<totfact> 0.59031196E+03</totfact>
</mgrwt>
</event>
<event>
 5    1  0.1139158E+001  0.2739365E+03  0.7818608E-02  0.1099048E+00
          2   -1    0    0  501    0  0.00000000000E+00  0.00000000000E+00  0.15250056697E+04  0.15250056697E+04  0.00000000000E+00 0. -1.
         -2   -1    0    0    0  501 -0.00000000000E+00 -0.00000000000E+00 -0.12301793063E+02  0.12301793063E+02  0.00000000000E+00 0. -1.
         35    2    1    2    0    0  0.00000000000E+00  0.00000000000E+00  0.15127038766E+04  0.15373074627E+04  0.27393651942E+03 0.  0.
         25    1    3    3    0    0  0.15492876693E+02 -0.64167728006E+02  0.76570486221E+03  0.77785696793E+03  0.12000000000E+03 0.  0.
         25    1    3    3    0    0 -0.15492876693E+02  0.64167728006E+02  0.74699901439E+03  0.75945049479E+03  0.12000000000E+03 0.  0.
<mgrwt>
<rscale>  0 0.27393652E+03</rscale>
<asrwt>0</asrwt>
<pdfrwt beam="1">  1        2 0.23461611E+00 0.27393652E+03</pdfrwt>
<pdfrwt beam="2">  1       -2 0.18925848E-02 0.27393652E+03</pdfrwt>
<totfact> 0.11092639E+04</totfact>
</mgrwt>
</event>
<event>
 5    1  0.1139158E+001  0.2754940E+03  0.7818608E-02  0.1098176E+00
          2   -1    0    0  501    0  0.00000000000E+00  0.00000000000E+00  0.67588841652E+03  0.67588841652E+03  0.00000000000E+00 0.  1.
         -2   -1    0    0    0  501 -0.00000000000E+00 -0.00000000000E+00 -0.28073026257E+02  0.28073026257E+02  0.00000000000E+00 0.  1.
         35    2    1    2    0    0  0.00000000000E+00  0.00000000000E+00  0.64781539027E+03  0.70396144278E+03  0.27549398007E+03 0.  0.
         25    1    3    3    0    0 -0.12381075992E+01  0.41937680890E+02  0.45945581642E+03  0.47671789271E+03  0.12000000000E+03 0.  0.
         25    1    3    3    0    0  0.12381075992E+01 -0.41937680890E+02  0.18835957385E+03  0.22724355007E+03  0.12000000000E+03 0.  0.
<mgrwt>
<rscale>  0 0.27549398E+03</rscale>
<asrwt>0</asrwt>
<pdfrwt beam="1">  1        2 0.10398282E+00 0.27549398E+03</pdfrwt>
<pdfrwt beam="2">  1       -2 0.43189276E-02 0.27549398E+03</pdfrwt>
<totfact> 0.10667481E+04</totfact>
</mgrwt>
</event>
<event>
 5    1  0.1139158E+001  0.2739382E+03  0.7818608E-02  0.1099047E+00
          2   -1    0    0  501    0  0.00000000000E+00  0.00000000000E+00  0.73815289367E+02  0.73815289367E+02  0.00000000000E+00 0. -1.
         -2   -1    0    0    0  501 -0.00000000000E+00 -0.00000000000E+00 -0.25415509563E+03  0.25415509563E+03  0.00000000000E+00 0. -1.
         35    2    1    2    0    0  0.00000000000E+00  0.00000000000E+00 -0.18033980626E+03  0.32797038499E+03  0.27393818228E+03 0.  0.
         25    1    3    3    0    0  0.34943649198E+02  0.39251389620E+02 -0.13804165971E+03  0.19030825001E+03  0.12000000000E+03 0.  0.
         25    1    3    3    0    0 -0.34943649198E+02 -0.39251389620E+02 -0.42298146548E+02  0.13766213498E+03  0.12000000000E+03 0.  0.
<mgrwt>
<rscale>  0 0.27393818E+03</rscale>
<asrwt>0</asrwt>
<pdfrwt beam="1">  1        2 0.11356198E-01 0.27393818E+03</pdfrwt>
<pdfrwt beam="2">  1       -2 0.39100784E-01 0.27393818E+03</pdfrwt>
<totfact> 0.33878606E+03</totfact>
</mgrwt>
</event>
<event>
 5    1  0.1139158E+001  0.2747426E+03  0.7818608E-02  0.1098596E+00
          1   -1    0    0  501    0  0.00000000000E+00  0.00000000000E+00  0.27901284694E+03  0.27901284694E+03  0.00000000000E+00 0.  1.
         -1   -1    0    0    0  501 -0.00000000000E+00 -0.00000000000E+00 -0.67634421330E+02  0.67634421330E+02  0.00000000000E+00 0.  1.
         35    2    1    2    0    0  0.00000000000E+00  0.00000000000E+00  0.21137842561E+03  0.34664726827E+03  0.27474258823E+03 0.  0.
         25    1    3    3    0    0  0.39539452801E+02 -0.46724853554E+02  0.71733043154E+02  0.15261785527E+03  0.12000000000E+03 0.  0.
         25    1    3    3    0    0 -0.39539452801E+02  0.46724853554E+02  0.13964538246E+03  0.19402941300E+03  0.12000000000E+03 0.  0.
<mgrwt>
<rscale>  0 0.27474259E+03</rscale>
<asrwt>0</asrwt>
<pdfrwt beam="1">  1        1 0.42925053E-01 0.27474259E+03</pdfrwt>
<pdfrwt beam="2">  1       -1 0.10405296E-01 0.27474259E+03</pdfrwt>
<totfact> 0.54669888E+03</totfact>
</mgrwt>
</event>
<event>
 5    1  0.1139158E+001  0.2747167E+03  0.7818608E-02  0.1098610E+00
         -2   -1    0    0    0  501 -0.00000000000E+00  0.00000000000E+00  0.92669822873E+01  0.92669822873E+01  0.00000000000E+00 0. -1.
          2   -1    0    0  501    0  0.00000000000E+00 -0.00000000000E+00 -0.20359713920E+04  0.20359713920E+04  0.00000000000E+00 0. -1.
         35    2    1    2    0    0  0.00000000000E+00  0.00000000000E+00 -0.20267044097E+04  0.20452383743E+04  0.27471666005E+03 0.  0.
         25    1    3    3    0    0  0.63484642065E+02 -0.40286803925E+01 -0.86063538078E+03  0.87128628401E+03  0.12000000000E+03 0.  0.
         25    1    3    3    0    0 -0.63484642065E+02  0.40286803925E+01 -0.11660690289E+04  0.11739520903E+04  0.12000000000E+03 0.  0.
<mgrwt>
<rscale>  0 0.27471666E+03</rscale>
<asrwt>0</asrwt>
<pdfrwt beam="1">  1        2 0.31322626E+00 0.27471666E+03</pdfrwt>
<pdfrwt beam="2">  1       -2 0.14256901E-02 0.27471666E+03</pdfrwt>
<totfact> 0.90387576E+03</totfact>
</mgrwt>
</event>
<event>
 5    1  0.1139158E+001  0.2784315E+03  0.7818608E-02  0.1096549E+00
         -4   -1    0    0    0  501 -0.00000000000E+00  0.00000000000E+00  0.23073711187E+02  0.23073711187E+02  0.00000000000E+00 0.  1.
          4   -1    0    0  501    0  0.00000000000E+00 -0.00000000000E+00 -0.83996109947E+03  0.83996109947E+03  0.00000000000E+00 0.  1.
         35    2    1    2    0    0  0.00000000000E+00  0.00000000000E+00 -0.81688738828E+03  0.86303481066E+03  0.27843146243E+03 0.  0.
         25    1    3    3    0    0 -0.41379872844E+01  0.58899124045E+01 -0.19082385707E+03  0.22553394076E+03  0.12000000000E+03 0.  0.
         25    1    3    3    0    0  0.41379872844E+01 -0.58899124045E+01 -0.62606353121E+03  0.63750086990E+03  0.12000000000E+03 0.  0.
<mgrwt>
<rscale>  0 0.27843146E+03</rscale>
<asrwt>0</asrwt>
<pdfrwt beam="1">  1        4 0.12922476E+00 0.27843146E+03</pdfrwt>
<pdfrwt beam="2">  1       -4 0.35498024E-02 0.27843146E+03</pdfrwt>
<totfact> 0.35736236E+02</totfact>
</mgrwt>
</event>
<event>
 5    1  0.1139158E+001  0.2753027E+03  0.7818608E-02  0.1098283E+00
         -2   -1    0    0    0  501 -0.00000000000E+00  0.00000000000E+00  0.42526353108E+01  0.42526353108E+01  0.00000000000E+00 0. -1.
          2   -1    0    0  501    0  0.00000000000E+00 -0.00000000000E+00 -0.44555655026E+04  0.44555655026E+04  0.00000000000E+00 0. -1.
         35    2    1    2    0    0  0.00000000000E+00  0.00000000000E+00 -0.44513128673E+04  0.44598181379E+04  0.27530270748E+03 0.  0.
         25    1    3    3    0    0  0.64209663370E+02  0.19319691448E+02 -0.21091043872E+04  0.21135792977E+04  0.12000000000E+03 0.  0.
         25    1    3    3    0    0 -0.64209663370E+02 -0.19319691448E+02 -0.23422084801E+04  0.23462388403E+04  0.12000000000E+03 0.  0.
<mgrwt>
<rscale>  0 0.27530271E+03</rscale>
<asrwt>0</asrwt>
<pdfrwt beam="1">  1        2 0.68547115E+00 0.27530271E+03</pdfrwt>
<pdfrwt beam="2">  1       -2 0.65425203E-03 0.27530271E+03</pdfrwt>
<totfact> 0.73537329E+02</totfact>
</mgrwt>
</event>
<event>
 5    1  0.1139158E+001  0.2749742E+03  0.7818608E-02  0.1098466E+00
         -2   -1    0    0    0  501 -0.00000000000E+00  0.00000000000E+00  0.11429453939E+03  0.11429453939E+03  0.00000000000E+00 0. -1.
          2   -1    0    0  501    0  0.00000000000E+00 -0.00000000000E+00 -0.16538590666E+03  0.16538590666E+03  0.00000000000E+00 0. -1.
         35    2    1    2    0    0  0.00000000000E+00  0.00000000000E+00 -0.51091367272E+02  0.27968044605E+03  0.27497422441E+03 0.  0.
         25    1    3    3    0    0  0.81398419385E+01  0.57870606424E+02 -0.59086463083E+02  0.14596737387E+03  0.12000000000E+03 0.  0.
         25    1    3    3    0    0 -0.81398419385E+01 -0.57870606424E+02  0.79950958110E+01  0.13371307218E+03  0.12000000000E+03 0.  0.
<mgrwt>
<rscale>  0 0.27497422E+03</rscale>
<asrwt>0</asrwt>
<pdfrwt beam="1">  1        2 0.25443986E-01 0.27497422E+03</pdfrwt>
<pdfrwt beam="2">  1       -2 0.17583775E-01 0.27497422E+03</pdfrwt>
<totfact> 0.54857513E+03</totfact>
</mgrwt>
</event>
<event>
 5    1  0.1139158E+001  0.2750374E+03  0.7818608E-02  0.1098431E+00
          1   -1    0    0  501    0  0.00000000000E+00  0.00000000000E+00  0.18182237937E+02  0.18182237937E+02  0.00000000000E+00 0. -1.
         -1   -1    0    0    0  501 -0.00000000000E+00 -0.00000000000E+00 -0.10401023737E+04  0.10401023737E+04  0.00000000000E+00 0. -1.
         35    2    1    2    0    0  0.00000000000E+00  0.00000000000E+00 -0.10219201357E+04  0.10582846116E+04  0.27503737082E+03 0.  0.
         25    1    3    3    0    0  0.47244396696E+02  0.43965978813E+02 -0.43935109500E+03  0.45999394016E+03  0.12000000000E+03 0.  0.
         25    1    3    3    0    0 -0.47244396696E+02 -0.43965978813E+02 -0.58256904072E+03  0.59829067143E+03  0.12000000000E+03 0.  0.
<mgrwt>
<rscale>  0 0.27503737E+03</rscale>
<asrwt>0</asrwt>
<pdfrwt beam="1">  1        1 0.27972668E-02 0.27503737E+03</pdfrwt>
<pdfrwt beam="2">  1       -1 0.16001578E+00 0.27503737E+03</pdfrwt>
<totfact> 0.11963743E+03</totfact>
</mgrwt>
</event>
<event>
 5    1  0.1139158E+001  0.2759505E+03  0.7818608E-02  0.1097921E+00
         -1   -1    0    0    0  501 -0.00000000000E+00  0.00000000000E+00  0.18339818107E+03  0.18339818107E+03  0.00000000000E+00 0.  1.
          1   -1    0    0  501    0  0.00000000000E+00 -0.00000000000E+00 -0.10380240852E+03  0.10380240852E+03  0.00000000000E+00 0.  1.
         35    2    1    2    0    0  0.00000000000E+00  0.00000000000E+00  0.79595772543E+02  0.28720058959E+03  0.27595052392E+03 0.  0.
         25    1    3    3    0    0 -0.70518959649E+01  0.59038555290E+01 -0.30425745587E+02  0.12413827267E+03  0.12000000000E+03 0.  0.
         25    1    3    3    0    0  0.70518959649E+01 -0.59038555290E+01  0.11002151813E+03  0.16306231692E+03  0.12000000000E+03 0.  0.
<mgrwt>
<rscale>  0 0.27595052E+03</rscale>
<asrwt>0</asrwt>
<pdfrwt beam="1">  1        1 0.15969601E-01 0.27595052E+03</pdfrwt>
<pdfrwt beam="2">  1       -1 0.28215105E-01 0.27595052E+03</pdfrwt>
<totfact> 0.38712761E+03</totfact>
</mgrwt>
</event>
<event>
 5    1  0.1139158E+001  0.2760596E+03  0.7818608E-02  0.1097861E+00
          2   -1    0    0  501    0  0.00000000000E+00  0.00000000000E+00  0.73701181969E+03  0.73701181969E+03  0.00000000000E+00 0.  1.
         -2   -1    0    0    0  501 -0.00000000000E+00 -0.00000000000E+00 -0.25850646765E+02  0.25850646765E+02  0.00000000000E+00 0.  1.
         35    2    1    2    0    0  0.00000000000E+00  0.00000000000E+00  0.71116117293E+03  0.76286246646E+03  0.27605964727E+03 0.  0.
         25    1    3    3    0    0  0.44208736935E+02  0.73046597625E+01  0.49768643845E+03  0.51390617966E+03  0.12000000000E+03 0.  0.
         25    1    3    3    0    0 -0.44208736935E+02 -0.73046597625E+01  0.21347473447E+03  0.24895628679E+03  0.12000000000E+03 0.  0.
<mgrwt>
<rscale>  0 0.27605965E+03</rscale>
<asrwt>0</asrwt>
<pdfrwt beam="1">  1        2 0.11338642E+00 0.27605965E+03</pdfrwt>
<pdfrwt beam="2">  1       -2 0.39770231E-02 0.27605965E+03</pdfrwt>
<totfact> 0.10871620E+04</totfact>
</mgrwt>
</event>
<event>
 5    1  0.1139158E+001  0.2755125E+03  0.7818608E-02  0.1098165E+00
         -2   -1    0    0    0  501 -0.00000000000E+00  0.00000000000E+00  0.25870966818E+02  0.25870966818E+02  0.00000000000E+00 0. -1.
          2   -1    0    0  501    0  0.00000000000E+00 -0.00000000000E+00 -0.73351667683E+03  0.73351667683E+03  0.00000000000E+00 0. -1.
         35    2    1    2    0    0  0.00000000000E+00  0.00000000000E+00 -0.70764571001E+03  0.75938764365E+03  0.27551250866E+03 0.  0.
         25    1    3    3    0    0  0.46690766192E+02 -0.45852862835E+02 -0.30654068929E+03  0.33563329225E+03  0.12000000000E+03 0.  0.
         25    1    3    3    0    0 -0.46690766192E+02  0.45852862835E+02 -0.40110502073E+03  0.42375435140E+03  0.12000000000E+03 0.  0.
<mgrwt>
<rscale>  0 0.27551251E+03</rscale>
<asrwt>0</asrwt>
<pdfrwt beam="1">  1        2 0.11284872E+00 0.27551251E+03</pdfrwt>
<pdfrwt beam="2">  1       -2 0.39801488E-02 0.27551251E+03</pdfrwt>
<totfact> 0.10921872E+04</totfact>
</mgrwt>
</event>
<event>
 5    1  0.1139158E+001  0.2754147E+03  0.7818608E-02  0.1098220E+00
          2   -1    0    0  501    0  0.00000000000E+00  0.00000000000E+00  0.54976983983E+03  0.54976983983E+03  0.00000000000E+00 0. -1.
         -2   -1    0    0    0  501 -0.00000000000E+00 -0.00000000000E+00 -0.34493193330E+02  0.34493193330E+02  0.00000000000E+00 0. -1.
         35    2    1    2    0    0  0.00000000000E+00  0.00000000000E+00  0.51527664650E+03  0.58426303316E+03  0.27541472272E+03 0.  0.
         25    1    3    3    0    0 -0.11346909777E+02 -0.58433087073E+01  0.39836238401E+03  0.41623969730E+03  0.12000000000E+03 0.  0.
         25    1    3    3    0    0  0.11346909777E+02  0.58433087073E+01  0.11691426249E+03  0.16802333585E+03  0.12000000000E+03 0.  0.
<mgrwt>
<rscale>  0 0.27541472E+03</rscale>
<asrwt>0</asrwt>
<pdfrwt beam="1">  1        2 0.84579969E-01 0.27541472E+03</pdfrwt>
<pdfrwt beam="2">  1       -2 0.53066455E-02 0.27541472E+03</pdfrwt>
<totfact> 0.99335741E+03</totfact>
</mgrwt>
</event>
<event>
 5    1  0.1139158E+001  0.2748149E+03  0.7818608E-02  0.1098555E+00
          2   -1    0    0  501    0  0.00000000000E+00  0.00000000000E+00  0.24548022486E+04  0.24548022486E+04  0.00000000000E+00 0.  1.
         -2   -1    0    0    0  501 -0.00000000000E+00 -0.00000000000E+00 -0.76913767075E+01  0.76913767075E+01  0.00000000000E+00 0.  1.
         35    2    1    2    0    0  0.00000000000E+00  0.00000000000E+00  0.24471108719E+04  0.24624936253E+04  0.27481491107E+03 0.  0.
         25    1    3    3    0    0  0.54396198868E+02 -0.37389237118E+02  0.11238122292E+04  0.11321266837E+04  0.12000000000E+03 0.  0.
         25    1    3    3    0    0 -0.54396198868E+02  0.37389237118E+02  0.13232986427E+04  0.13303669416E+04  0.12000000000E+03 0.  0.
<mgrwt>
<rscale>  0 0.27481491E+03</rscale>
<asrwt>0</asrwt>
<pdfrwt beam="1">  1        2 0.37766126E+00 0.27481491E+03</pdfrwt>
<pdfrwt beam="2">  1       -2 0.11832907E-02 0.27481491E+03</pdfrwt>
<totfact> 0.70844483E+03</totfact>
</mgrwt>
</event>
<event>
 5    1  0.1139158E+001  0.2754288E+03  0.7818608E-02  0.1098212E+00
         -4   -1    0    0    0  501 -0.00000000000E+00  0.00000000000E+00  0.53182184460E+03  0.53182184460E+03  0.00000000000E+00 0. -1.
          4   -1    0    0  501    0  0.00000000000E+00 -0.00000000000E+00 -0.35660919227E+02  0.35660919227E+02  0.00000000000E+00 0. -1.
         35    2    1    2    0    0  0.00000000000E+00  0.00000000000E+00  0.49616092537E+03  0.56748276383E+03  0.27542879910E+03 0.  0.
         25    1    3    3    0    0 -0.51211814510E+02 -0.10852491927E+02  0.33609500835E+03  0.36069416569E+03  0.12000000000E+03 0.  0.
         25    1    3    3    0    0  0.51211814510E+02  0.10852491927E+02  0.16006591702E+03  0.20678859813E+03  0.12000000000E+03 0.  0.
<mgrwt>
<rscale>  0 0.27542880E+03</rscale>
<asrwt>0</asrwt>
<pdfrwt beam="1">  1        4 0.54862957E-02 0.27542880E+03</pdfrwt>
<pdfrwt beam="2">  1       -4 0.81818739E-01 0.27542880E+03</pdfrwt>
<totfact> 0.51990467E+02</totfact>
</mgrwt>
</event>
<event>
 5    1  0.1139158E+001  0.2749471E+03  0.7818608E-02  0.1098481E+00
          2   -1    0    0  501    0  0.00000000000E+00  0.00000000000E+00  0.19868604931E+03  0.19868604931E+03  0.00000000000E+00 0. -1.
         -2   -1    0    0    0  501 -0.00000000000E+00 -0.00000000000E+00 -0.95119805529E+02  0.95119805529E+02  0.00000000000E+00 0. -1.
         35    2    1    2    0    0  0.00000000000E+00  0.00000000000E+00  0.10356624378E+03  0.29380585484E+03  0.27494711035E+03 0.  0.
         25    1    3    3    0    0  0.61485483402E+02  0.26789362258E+02  0.52764697990E+02  0.14724893193E+03  0.12000000000E+03 0.  0.
         25    1    3    3    0    0 -0.61485483402E+02 -0.26789362258E+02  0.50801545795E+02  0.14655692292E+03  0.12000000000E+03 0.  0.
<mgrwt>
<rscale>  0 0.27494711E+03</rscale>
<asrwt>0</asrwt>
<pdfrwt beam="1">  1        2 0.30567084E-01 0.27494711E+03</pdfrwt>
<pdfrwt beam="2">  1       -2 0.14633816E-01 0.27494711E+03</pdfrwt>
<totfact> 0.60806601E+03</totfact>
</mgrwt>
</event>
<event>
 5    1  0.1139158E+001  0.2717333E+03  0.7818608E-02  0.1100292E+00
         -1   -1    0    0    0  501 -0.00000000000E+00  0.00000000000E+00  0.43753241057E+02  0.43753241057E+02  0.00000000000E+00 0.  1.
          1   -1    0    0  501    0  0.00000000000E+00 -0.00000000000E+00 -0.42190589425E+03  0.42190589425E+03  0.00000000000E+00 0.  1.
         35    2    1    2    0    0  0.00000000000E+00  0.00000000000E+00 -0.37815265319E+03  0.46565913530E+03  0.27173332732E+03 0.  0.
         25    1    3    3    0    0  0.10597279265E+02 -0.32329318883E+02 -0.96756790968E+02  0.15785868296E+03  0.12000000000E+03 0.  0.
         25    1    3    3    0    0 -0.10597279265E+02  0.32329318883E+02 -0.28139586222E+03  0.30780045234E+03  0.12000000000E+03 0.  0.
<mgrwt>
<rscale>  0 0.27173333E+03</rscale>
<asrwt>0</asrwt>
<pdfrwt beam="1">  1        1 0.64908598E-01 0.27173333E+03</pdfrwt>
<pdfrwt beam="2">  1       -1 0.67312680E-02 0.27173333E+03</pdfrwt>
<totfact> 0.63015721E+03</totfact>
</mgrwt>
</event>
<event>
 5    1  0.1139158E+001  0.2749896E+03  0.7818608E-02  0.1098457E+00
         -1   -1    0    0    0  501 -0.00000000000E+00  0.00000000000E+00  0.14183662931E+02  0.14183662931E+02  0.00000000000E+00 0. -1.
          1   -1    0    0  501    0  0.00000000000E+00 -0.00000000000E+00 -0.13328588263E+04  0.13328588263E+04  0.00000000000E+00 0. -1.
         35    2    1    2    0    0  0.00000000000E+00  0.00000000000E+00 -0.13186751634E+04  0.13470424892E+04  0.27498960218E+03 0.  0.
         25    1    3    3    0    0 -0.23104646934E+02 -0.16700099567E+02 -0.36169032485E+03  0.38214213210E+03  0.12000000000E+03 0.  0.
         25    1    3    3    0    0  0.23104646934E+02  0.16700099567E+02 -0.95698483854E+03  0.96490035715E+03  0.12000000000E+03 0.  0.
<mgrwt>
<rscale>  0 0.27498960E+03</rscale>
<asrwt>0</asrwt>
<pdfrwt beam="1">  1        1 0.20505523E+00 0.27498960E+03</pdfrwt>
<pdfrwt beam="2">  1       -1 0.21821017E-02 0.27498960E+03</pdfrwt>
<totfact> 0.55914424E+03</totfact>
</mgrwt>
</event>
<event>
 5    1  0.1139158E+001  0.2664641E+03  0.7818608E-02  0.1103320E+00
         -1   -1    0    0    0  501 -0.00000000000E+00  0.00000000000E+00  0.25907898919E+02  0.25907898919E+02  0.00000000000E+00 0.  1.
          1   -1    0    0  501    0  0.00000000000E+00 -0.00000000000E+00 -0.68514951286E+03  0.68514951286E+03  0.00000000000E+00 0.  1.
         35    2    1    2    0    0  0.00000000000E+00  0.00000000000E+00 -0.65924161394E+03  0.71105741178E+03  0.26646413885E+03 0.  0.
         25    1    3    3    0    0 -0.29185635282E+02  0.49502064076E+02 -0.34821019481E+03  0.37276345774E+03  0.12000000000E+03 0.  0.
         25    1    3    3    0    0  0.29185635282E+02 -0.49502064076E+02 -0.31103141912E+03  0.33829395404E+03  0.12000000000E+03 0.  0.
<mgrwt>
<rscale>  0 0.26646414E+03</rscale>
<asrwt>0</asrwt>
<pdfrwt beam="1">  1        1 0.10540760E+00 0.26646414E+03</pdfrwt>
<pdfrwt beam="2">  1       -1 0.39858312E-02 0.26646414E+03</pdfrwt>
<totfact> 0.71617791E+03</totfact>
</mgrwt>
</event>
<event>
 5    1  0.1139158E+001  0.2753637E+03  0.7818608E-02  0.1098248E+00
         -1   -1    0    0    0  501 -0.00000000000E+00  0.00000000000E+00  0.75553798261E+02  0.75553798261E+02  0.00000000000E+00 0. -1.
          1   -1    0    0  501    0  0.00000000000E+00 -0.00000000000E+00 -0.25089793754E+03  0.25089793754E+03  0.00000000000E+00 0. -1.
         35    2    1    2    0    0  0.00000000000E+00  0.00000000000E+00 -0.17534413928E+03  0.32645173580E+03  0.27536370245E+03 0.  0.
         25    1    3    3    0    0 -0.52221816786E+02  0.26770342071E+02 -0.12721480868E+03  0.18446511028E+03  0.12000000000E+03 0.  0.
         25    1    3    3    0    0  0.52221816786E+02 -0.26770342071E+02 -0.48129330601E+02  0.14198662552E+03  0.12000000000E+03 0.  0.
<mgrwt>
<rscale>  0 0.27536370E+03</rscale>
<asrwt>0</asrwt>
<pdfrwt beam="1">  1        1 0.38599682E-01 0.27536370E+03</pdfrwt>
<pdfrwt beam="2">  1       -1 0.11623661E-01 0.27536370E+03</pdfrwt>
<totfact> 0.52593749E+03</totfact>
</mgrwt>
</event>
<event>
 5    1  0.1139158E+001  0.2745428E+03  0.7818608E-02  0.1098707E+00
         -2   -1    0    0    0  501 -0.00000000000E+00  0.00000000000E+00  0.13887984652E+02  0.13887984652E+02  0.00000000000E+00 0. -1.
          2   -1    0    0  501    0  0.00000000000E+00 -0.00000000000E+00 -0.13568154157E+04  0.13568154157E+04  0.00000000000E+00 0. -1.
         35    2    1    2    0    0  0.00000000000E+00  0.00000000000E+00 -0.13429274310E+04  0.13707034003E+04  0.27454275928E+03 0.  0.
         25    1    3    3    0    0  0.35852838076E+02  0.33038480482E+02 -0.89842274620E+03  0.90771162716E+03  0.12000000000E+03 0.  0.
         25    1    3    3    0    0 -0.35852838076E+02 -0.33038480482E+02 -0.44450468481E+03  0.46299177316E+03  0.12000000000E+03 0.  0.
<mgrwt>
<rscale>  0 0.27454276E+03</rscale>
<asrwt>0</asrwt>
<pdfrwt beam="1">  1        2 0.20874086E+00 0.27454276E+03</pdfrwt>
<pdfrwt beam="2">  1       -2 0.21366127E-02 0.27454276E+03</pdfrwt>
<totfact> 0.11437961E+04</totfact>
</mgrwt>
</event>
<event>
 5    1  0.1139158E+001  0.2749779E+03  0.7818608E-02  0.1098464E+00
         -1   -1    0    0    0  501 -0.00000000000E+00  0.00000000000E+00  0.22258996713E+02  0.22258996713E+02  0.00000000000E+00 0.  1.
          1   -1    0    0  501    0  0.00000000000E+00 -0.00000000000E+00 -0.84923912884E+03  0.84923912884E+03  0.00000000000E+00 0.  1.
         35    2    1    2    0    0  0.00000000000E+00  0.00000000000E+00 -0.82698013213E+03  0.87149812555E+03  0.27497789713E+03 0.  0.
         25    1    3    3    0    0 -0.40049688070E+02  0.13659911343E+02 -0.24842134953E+03  0.27911241032E+03  0.12000000000E+03 0.  0.
         25    1    3    3    0    0  0.40049688070E+02 -0.13659911343E+02 -0.57855878259E+03  0.59238571523E+03  0.12000000000E+03 0.  0.
<mgrwt>
<rscale>  0 0.27497790E+03</rscale>
<asrwt>0</asrwt>
<pdfrwt beam="1">  1        1 0.13065217E+00 0.27497790E+03</pdfrwt>
<pdfrwt beam="2">  1       -1 0.34244610E-02 0.27497790E+03</pdfrwt>
<totfact> 0.64917327E+03</totfact>
</mgrwt>
</event>
<event>
 5    1  0.1139158E+001  0.2754218E+03  0.7818608E-02  0.1098216E+00
         -1   -1    0    0    0  501 -0.00000000000E+00  0.00000000000E+00  0.57165236718E+02  0.57165236718E+02  0.00000000000E+00 0. -1.
          1   -1    0    0  501    0  0.00000000000E+00 -0.00000000000E+00 -0.33174516895E+03  0.33174516895E+03  0.00000000000E+00 0. -1.
         35    2    1    2    0    0  0.00000000000E+00  0.00000000000E+00 -0.27457993223E+03  0.38891040567E+03  0.27542179372E+03 0.  0.
         25    1    3    3    0    0  0.11547320112E+02 -0.35693297876E+01 -0.23114864945E+03  0.26072165015E+03  0.12000000000E+03 0.  0.
         25    1    3    3    0    0 -0.11547320112E+02  0.35693297876E+01 -0.43431282787E+02  0.12818875552E+03  0.12000000000E+03 0.  0.
<mgrwt>
<rscale>  0 0.27542179E+03</rscale>
<asrwt>0</asrwt>
<pdfrwt beam="1">  1        1 0.51037718E-01 0.27542179E+03</pdfrwt>
<pdfrwt beam="2">  1       -1 0.87946518E-02 0.27542179E+03</pdfrwt>
<totfact> 0.56984504E+03</totfact>
</mgrwt>
</event>
<event>
 5    1  0.1139158E+001  0.2751810E+03  0.7818608E-02  0.1098350E+00
         -4   -1    0    0    0  501 -0.00000000000E+00  0.00000000000E+00  0.14105297195E+03  0.14105297195E+03  0.00000000000E+00 0.  1.
          4   -1    0    0  501    0  0.00000000000E+00 -0.00000000000E+00 -0.13421303884E+03  0.13421303884E+03  0.00000000000E+00 0.  1.
         35    2    1    2    0    0  0.00000000000E+00  0.00000000000E+00  0.68399331061E+01  0.27526601079E+03  0.27518101681E+03 0.  0.
         25    1    3    3    0    0  0.61811491453E+02  0.22939364369E+02  0.16998881791E+02  0.13797042036E+03  0.12000000000E+03 0.  0.
         25    1    3    3    0    0 -0.61811491453E+02 -0.22939364369E+02 -0.10158948685E+02  0.13729559043E+03  0.12000000000E+03 0.  0.
<mgrwt>
<rscale>  0 0.27518102E+03</rscale>
<asrwt>0</asrwt>
<pdfrwt beam="1">  1        4 0.20648160E-01 0.27518102E+03</pdfrwt>
<pdfrwt beam="2">  1       -4 0.21700457E-01 0.27518102E+03</pdfrwt>
<totfact> 0.77673529E+02</totfact>
</mgrwt>
</event>
<event>
 5    1  0.1139158E+001  0.2746942E+03  0.7818608E-02  0.1098623E+00
          2   -1    0    0  501    0  0.00000000000E+00  0.00000000000E+00  0.54402386102E+03  0.54402386102E+03  0.00000000000E+00 0.  1.
         -2   -1    0    0    0  501 -0.00000000000E+00 -0.00000000000E+00 -0.34675364305E+02  0.34675364305E+02  0.00000000000E+00 0.  1.
         35    2    1    2    0    0  0.00000000000E+00  0.00000000000E+00  0.50934849671E+03  0.57869922532E+03  0.27469419777E+03 0.  0.
         25    1    3    3    0    0 -0.55062016026E+02 -0.37819089395E+02  0.25160941833E+03  0.28665206876E+03  0.12000000000E+03 0.  0.
         25    1    3    3    0    0  0.55062016026E+02  0.37819089395E+02  0.25773907838E+03  0.29204715656E+03  0.12000000000E+03 0.  0.
<mgrwt>
<rscale>  0 0.27469420E+03</rscale>
<asrwt>0</asrwt>
<pdfrwt beam="1">  1        2 0.83695973E-01 0.27469420E+03</pdfrwt>
<pdfrwt beam="2">  1       -2 0.53346718E-02 0.27469420E+03</pdfrwt>
<totfact> 0.99715772E+03</totfact>
</mgrwt>
</event>
<event>
 5    1  0.1139158E+001  0.2752212E+03  0.7818608E-02  0.1098328E+00
         -2   -1    0    0    0  501 -0.00000000000E+00  0.00000000000E+00  0.86450122524E+01  0.86450122524E+01  0.00000000000E+00 0.  1.
          2   -1    0    0  501    0  0.00000000000E+00 -0.00000000000E+00 -0.21904738947E+04  0.21904738947E+04  0.00000000000E+00 0.  1.
         35    2    1    2    0    0  0.00000000000E+00  0.00000000000E+00 -0.21818288825E+04  0.21991189070E+04  0.27522117403E+03 0.  0.
         25    1    3    3    0    0 -0.43018567995E+02  0.90299074460E+00 -0.15049714377E+04  0.15103610300E+04  0.12000000000E+03 0.  0.
         25    1    3    3    0    0  0.43018567995E+02 -0.90299074460E+00 -0.67685744481E+03  0.68875787703E+03  0.12000000000E+03 0.  0.
<mgrwt>
<rscale>  0 0.27522117E+03</rscale>
<asrwt>0</asrwt>
<pdfrwt beam="1">  1        2 0.33699644E+00 0.27522117E+03</pdfrwt>
<pdfrwt beam="2">  1       -2 0.13300001E-02 0.27522117E+03</pdfrwt>
<totfact> 0.82879427E+03</totfact>
</mgrwt>
</event>
<event>
 5    1  0.1139158E+001  0.2753551E+03  0.7818608E-02  0.1098253E+00
          2   -1    0    0  501    0  0.00000000000E+00  0.00000000000E+00  0.10942254978E+04  0.10942254978E+04  0.00000000000E+00 0. -1.
         -2   -1    0    0    0  501 -0.00000000000E+00 -0.00000000000E+00 -0.17322850387E+02  0.17322850387E+02  0.00000000000E+00 0. -1.
         35    2    1    2    0    0  0.00000000000E+00  0.00000000000E+00  0.10769026474E+04  0.11115483482E+04  0.27535507685E+03 0.  0.
         25    1    3    3    0    0 -0.66600474213E+02  0.95617077545E+01  0.55983299732E+03  0.57648940520E+03  0.12000000000E+03 0.  0.
         25    1    3    3    0    0  0.66600474213E+02 -0.95617077545E+01  0.51706965008E+03  0.53505894297E+03  0.12000000000E+03 0.  0.
<mgrwt>
<rscale>  0 0.27535508E+03</rscale>
<asrwt>0</asrwt>
<pdfrwt beam="1">  1        2 0.16834233E+00 0.27535508E+03</pdfrwt>
<pdfrwt beam="2">  1       -2 0.26650548E-02 0.27535508E+03</pdfrwt>
<totfact> 0.11614413E+04</totfact>
</mgrwt>
</event>
<event>
 5    1  0.1139158E+001  0.2738601E+03  0.7818608E-02  0.1099090E+00
          2   -1    0    0  501    0  0.00000000000E+00  0.00000000000E+00  0.10176710535E+04  0.10176710535E+04  0.00000000000E+00 0. -1.
         -2   -1    0    0    0  501 -0.00000000000E+00 -0.00000000000E+00 -0.18424260909E+02  0.18424260909E+02  0.00000000000E+00 0. -1.
         35    2    1    2    0    0  0.00000000000E+00  0.00000000000E+00  0.99924679256E+03  0.10360953144E+04  0.27386008843E+03 0.  0.
         25    1    3    3    0    0 -0.32658050257E+02  0.53682200219E+02  0.42381466550E+03  0.44493504870E+03  0.12000000000E+03 0.  0.
         25    1    3    3    0    0  0.32658050257E+02 -0.53682200219E+02  0.57543212706E+03  0.59116026568E+03  0.12000000000E+03 0.  0.
<mgrwt>
<rscale>  0 0.27386009E+03</rscale>
<asrwt>0</asrwt>
<pdfrwt beam="1">  1        2 0.15656473E+00 0.27386009E+03</pdfrwt>
<pdfrwt beam="2">  1       -2 0.28345025E-02 0.27386009E+03</pdfrwt>
<totfact> 0.11774948E+04</totfact>
</mgrwt>
</event>
<event>
 5    1  0.1139158E+001  0.2746081E+03  0.7818608E-02  0.1098671E+00
          2   -1    0    0  501    0  0.00000000000E+00  0.00000000000E+00  0.75878039693E+03  0.75878039693E+03  0.00000000000E+00 0. -1.
         -2   -1    0    0    0  501 -0.00000000000E+00 -0.00000000000E+00 -0.24845671302E+02  0.24845671302E+02  0.00000000000E+00 0. -1.
         35    2    1    2    0    0  0.00000000000E+00  0.00000000000E+00  0.73393472563E+03  0.78362606823E+03  0.27460814505E+03 0.  0.
         25    1    3    3    0    0 -0.46816442099E+02 -0.30914182634E+02  0.47005133153E+03  0.48836023611E+03  0.12000000000E+03 0.  0.
         25    1    3    3    0    0  0.46816442099E+02  0.30914182634E+02  0.26388339410E+03  0.29526583213E+03  0.12000000000E+03 0.  0.
<mgrwt>
<rscale>  0 0.27460815E+03</rscale>
<asrwt>0</asrwt>
<pdfrwt beam="1">  1        2 0.11673543E+00 0.27460815E+03</pdfrwt>
<pdfrwt beam="2">  1       -2 0.38224115E-02 0.27460815E+03</pdfrwt>
<totfact> 0.11127588E+04</totfact>
</mgrwt>
</event>
<event>
 5    1  0.1139158E+001  0.2741769E+03  0.7818608E-02  0.1098913E+00
         -2   -1    0    0    0  501 -0.00000000000E+00  0.00000000000E+00  0.16643201876E+02  0.16643201876E+02  0.00000000000E+00 0.  1.
          2   -1    0    0  501    0  0.00000000000E+00 -0.00000000000E+00 -0.11291845474E+04  0.11291845474E+04  0.00000000000E+00 0.  1.
         35    2    1    2    0    0  0.00000000000E+00  0.00000000000E+00 -0.11125413455E+04  0.11458277493E+04  0.27417692374E+03 0.  0.
         25    1    3    3    0    0  0.44461805699E+02 -0.46604780262E+02 -0.49093821913E+03  0.50947933492E+03  0.12000000000E+03 0.  0.
         25    1    3    3    0    0 -0.44461805699E+02  0.46604780262E+02 -0.62160312641E+03  0.63634841437E+03  0.12000000000E+03 0.  0.
<mgrwt>
<rscale>  0 0.27417692E+03</rscale>
<asrwt>0</asrwt>
<pdfrwt beam="1">  1        2 0.17372078E+00 0.27417692E+03</pdfrwt>
<pdfrwt beam="2">  1       -2 0.25604914E-02 0.27417692E+03</pdfrwt>
<totfact> 0.11755782E+04</totfact>
</mgrwt>
</event>
<event>
 5    1  0.1139158E+001  0.2753877E+03  0.7818608E-02  0.1098235E+00
         -1   -1    0    0    0  501 -0.00000000000E+00  0.00000000000E+00  0.22909834696E+03  0.22909834696E+03  0.00000000000E+00 0. -1.
          1   -1    0    0  501    0  0.00000000000E+00 -0.00000000000E+00 -0.82757452559E+02  0.82757452559E+02  0.00000000000E+00 0. -1.
         35    2    1    2    0    0  0.00000000000E+00  0.00000000000E+00  0.14634089440E+03  0.31185579952E+03  0.27538769457E+03 0.  0.
         25    1    3    3    0    0  0.31879673037E+02  0.58679235229E+02  0.61844537802E+02  0.15061312378E+03  0.12000000000E+03 0.  0.
         25    1    3    3    0    0 -0.31879673037E+02 -0.58679235229E+02  0.84496356600E+02  0.16124267574E+03  0.12000000000E+03 0.  0.
<mgrwt>
<rscale>  0 0.27538769E+03</rscale>
<asrwt>0</asrwt>
<pdfrwt beam="1">  1        1 0.12731916E-01 0.27538769E+03</pdfrwt>
<pdfrwt beam="2">  1       -1 0.35245899E-01 0.27538769E+03</pdfrwt>
<totfact> 0.35631451E+03</totfact>
</mgrwt>
</event>
<event>
 5    1  0.1139158E+001  0.2755517E+03  0.7818608E-02  0.1098144E+00
         -3   -1    0    0    0  501 -0.00000000000E+00  0.00000000000E+00  0.80335759005E+03  0.80335759005E+03  0.00000000000E+00 0.  1.
          3   -1    0    0  501    0  0.00000000000E+00 -0.00000000000E+00 -0.23628556209E+02  0.23628556209E+02  0.00000000000E+00 0.  1.
         35    2    1    2    0    0  0.00000000000E+00  0.00000000000E+00  0.77972903385E+03  0.82698614626E+03  0.27555166465E+03 0.  0.
         25    1    3    3    0    0 -0.65453168808E+02  0.13764473915E+02  0.35858831898E+03  0.38400411529E+03  0.12000000000E+03 0.  0.
         25    1    3    3    0    0  0.65453168808E+02 -0.13764473915E+02  0.42114071486E+03  0.44298203097E+03  0.12000000000E+03 0.  0.
<mgrwt>
<rscale>  0 0.27555166E+03</rscale>
<asrwt>0</asrwt>
<pdfrwt beam="1">  1        3 0.36351631E-02 0.27555166E+03</pdfrwt>
<pdfrwt beam="2">  1       -3 0.12359345E+00 0.27555166E+03</pdfrwt>
<totfact> 0.52719827E+02</totfact>
</mgrwt>
</event>
<event>
 5    1  0.1139158E+001  0.2763719E+03  0.7818608E-02  0.1097687E+00
          2   -1    0    0  501    0  0.00000000000E+00  0.00000000000E+00  0.19866318530E+04  0.19866318530E+04  0.00000000000E+00 0.  1.
         -2   -1    0    0    0  501 -0.00000000000E+00 -0.00000000000E+00 -0.96119241977E+01  0.96119241977E+01  0.00000000000E+00 0.  1.
         35    2    1    2    0    0  0.00000000000E+00  0.00000000000E+00  0.19770199288E+04  0.19962437772E+04  0.27637188554E+03 0.  0.
         25    1    3    3    0    0  0.31907075127E+02  0.33011083370E+02  0.13559318925E+04  0.13620055397E+04  0.12000000000E+03 0.  0.
         25    1    3    3    0    0 -0.31907075127E+02 -0.33011083370E+02  0.62108803627E+03  0.63423823747E+03  0.12000000000E+03 0.  0.
<mgrwt>
<rscale>  0 0.27637189E+03</rscale>
<asrwt>0</asrwt>
<pdfrwt beam="1">  1        2 0.30563534E+00 0.27637189E+03</pdfrwt>
<pdfrwt beam="2">  1       -2 0.14787592E-02 0.27637189E+03</pdfrwt>
<totfact> 0.90969922E+03</totfact>
</mgrwt>
</event>
<event>
 5    1  0.1139158E+001  0.2747616E+03  0.7818608E-02  0.1098585E+00
          2   -1    0    0  501    0  0.00000000000E+00  0.00000000000E+00  0.96717487866E+03  0.96717487866E+03  0.00000000000E+00 0. -1.
         -2   -1    0    0    0  501 -0.00000000000E+00 -0.00000000000E+00 -0.19514037102E+02  0.19514037102E+02  0.00000000000E+00 0. -1.
         35    2    1    2    0    0  0.00000000000E+00  0.00000000000E+00  0.94766084156E+03  0.98668891576E+03  0.27476161643E+03 0.  0.
         25    1    3    3    0    0 -0.17892520689E+02 -0.30965635241E+02  0.27086416567E+03  0.29840644951E+03  0.12000000000E+03 0.  0.
         25    1    3    3    0    0  0.17892520689E+02  0.30965635241E+02  0.67679667589E+03  0.68828246626E+03  0.12000000000E+03 0.  0.
<mgrwt>
<rscale>  0 0.27476162E+03</rscale>
<asrwt>0</asrwt>
<pdfrwt beam="1">  1        2 0.14879610E+00 0.27476162E+03</pdfrwt>
<pdfrwt beam="2">  1       -2 0.30021603E-02 0.27476162E+03</pdfrwt>
<totfact> 0.11612993E+04</totfact>
</mgrwt>
</event>
<event>
 5    1  0.1139158E+001  0.2757074E+03  0.7818608E-02  0.1098057E+00
          1   -1    0    0  501    0  0.00000000000E+00  0.00000000000E+00  0.33224649370E+03  0.33224649370E+03  0.00000000000E+00 0. -1.
         -1   -1    0    0    0  501 -0.00000000000E+00 -0.00000000000E+00 -0.57197425295E+02  0.57197425295E+02  0.00000000000E+00 0. -1.
         35    2    1    2    0    0  0.00000000000E+00  0.00000000000E+00  0.27504906841E+03  0.38944391900E+03  0.27570741015E+03 0.  0.
         25    1    3    3    0    0 -0.48537178749E+02  0.47063045374E+02  0.12942790760E+03  0.18900362755E+03  0.12000000000E+03 0.  0.
         25    1    3    3    0    0  0.48537178749E+02 -0.47063045374E+02  0.14562116081E+03  0.20044029145E+03  0.12000000000E+03 0.  0.
<mgrwt>
<rscale>  0 0.27570741E+03</rscale>
<asrwt>0</asrwt>
<pdfrwt beam="1">  1        1 0.51114844E-01 0.27570741E+03</pdfrwt>
<pdfrwt beam="2">  1       -1 0.87996041E-02 0.27570741E+03</pdfrwt>
<totfact> 0.56828654E+03</totfact>
</mgrwt>
</event>
<event>
 5    1  0.1139158E+001  0.2744603E+03  0.7818608E-02  0.1098754E+00
          2   -1    0    0  501    0  0.00000000000E+00  0.00000000000E+00  0.40979349353E+03  0.40979349353E+03  0.00000000000E+00 0.  1.
         -2   -1    0    0    0  501 -0.00000000000E+00 -0.00000000000E+00 -0.45955118351E+02  0.45955118351E+02  0.00000000000E+00 0.  1.
         35    2    1    2    0    0  0.00000000000E+00  0.00000000000E+00  0.36383837518E+03  0.45574861189E+03  0.27446025938E+03 0.  0.
         25    1    3    3    0    0  0.13385805884E+02  0.28265011957E+02  0.84328546614E+02  0.14996464408E+03  0.12000000000E+03 0.  0.
         25    1    3    3    0    0 -0.13385805884E+02 -0.28265011957E+02  0.27950982857E+03  0.30578396781E+03  0.12000000000E+03 0.  0.
<mgrwt>
<rscale>  0 0.27446026E+03</rscale>
<asrwt>0</asrwt>
<pdfrwt beam="1">  1        2 0.63045150E-01 0.27446026E+03</pdfrwt>
<pdfrwt beam="2">  1       -2 0.70700185E-02 0.27446026E+03</pdfrwt>
<totfact> 0.88593252E+03</totfact>
</mgrwt>
</event>
<event>
 5    1  0.1139158E+001  0.2750132E+03  0.7818608E-02  0.1098444E+00
          2   -1    0    0  501    0  0.00000000000E+00  0.00000000000E+00  0.11900784751E+04  0.11900784751E+04  0.00000000000E+00 0. -1.
         -2   -1    0    0    0  501 -0.00000000000E+00 -0.00000000000E+00 -0.15888083070E+02  0.15888083070E+02  0.00000000000E+00 0. -1.
         35    2    1    2    0    0  0.00000000000E+00  0.00000000000E+00  0.11741903920E+04  0.12059665582E+04  0.27501320457E+03 0.  0.
         25    1    3    3    0    0  0.14418276746E+02  0.58279751830E+02  0.71891532222E+03  0.73133006003E+03  0.12000000000E+03 0.  0.
         25    1    3    3    0    0 -0.14418276746E+02 -0.58279751830E+02  0.45527506982E+03  0.47463649815E+03  0.12000000000E+03 0.  0.
<mgrwt>
<rscale>  0 0.27501320E+03</rscale>
<asrwt>0</asrwt>
<pdfrwt beam="1">  1        2 0.18308893E+00 0.27501320E+03</pdfrwt>
<pdfrwt beam="2">  1       -2 0.24443214E-02 0.27501320E+03</pdfrwt>
<totfact> 0.11617010E+04</totfact>
</mgrwt>
</event>
<event>
 5    1  0.1139158E+001  0.2742958E+03  0.7818608E-02  0.1098846E+00
         -1   -1    0    0    0  501 -0.00000000000E+00  0.00000000000E+00  0.23892557008E+03  0.23892557008E+03  0.00000000000E+00 0.  1.
          1   -1    0    0  501    0  0.00000000000E+00 -0.00000000000E+00 -0.78725534550E+02  0.78725534550E+02  0.00000000000E+00 0.  1.
         35    2    1    2    0    0  0.00000000000E+00  0.00000000000E+00  0.16020003553E+03  0.31765110463E+03  0.27429577629E+03 0.  0.
         25    1    3    3    0    0 -0.30124179955E+02  0.43375181804E+02  0.33479335197E+02  0.13531348233E+03  0.12000000000E+03 0.  0.
         25    1    3    3    0    0  0.30124179955E+02 -0.43375181804E+02  0.12672070034E+03  0.18233762231E+03  0.12000000000E+03 0.  0.
<mgrwt>
<rscale>  0 0.27429578E+03</rscale>
<asrwt>0</asrwt>
<pdfrwt beam="1">  1        1 0.12111621E-01 0.27429578E+03</pdfrwt>
<pdfrwt beam="2">  1       -1 0.36757780E-01 0.27429578E+03</pdfrwt>
<totfact> 0.35379191E+03</totfact>
</mgrwt>
</event>
<event>
 5    1  0.1139158E+001  0.2796896E+03  0.7818608E-02  0.1095859E+00
          2   -1    0    0  501    0  0.00000000000E+00  0.00000000000E+00  0.10773941767E+04  0.10773941767E+04  0.00000000000E+00 0. -1.
         -2   -1    0    0    0  501 -0.00000000000E+00 -0.00000000000E+00 -0.18151732328E+02  0.18151732328E+02  0.00000000000E+00 0. -1.
         35    2    1    2    0    0  0.00000000000E+00  0.00000000000E+00  0.10592424443E+04  0.10955459090E+04  0.27968961873E+03 0.  0.
         25    1    3    3    0    0  0.30710916970E+02  0.62682480289E+02  0.59566860458E+03  0.61163170310E+03  0.12000000000E+03 0.  0.
         25    1    3    3    0    0 -0.30710916970E+02 -0.62682480289E+02  0.46357383974E+03  0.48391420588E+03  0.12000000000E+03 0.  0.
<mgrwt>
<rscale>  0 0.27968962E+03</rscale>
<asrwt>0</asrwt>
<pdfrwt beam="1">  1        2 0.16575290E+00 0.27968962E+03</pdfrwt>
<pdfrwt beam="2">  1       -2 0.27925750E-02 0.27968962E+03</pdfrwt>
<totfact> 0.11092146E+04</totfact>
</mgrwt>
</event>
<event>
 5    1  0.1139158E+001  0.2747305E+03  0.7818608E-02  0.1098602E+00
          2   -1    0    0  501    0  0.00000000000E+00  0.00000000000E+00  0.30105884893E+04  0.30105884893E+04  0.00000000000E+00 0. -1.
         -2   -1    0    0    0  501 -0.00000000000E+00 -0.00000000000E+00 -0.62676138133E+01  0.62676138133E+01  0.00000000000E+00 0. -1.
         35    2    1    2    0    0  0.00000000000E+00  0.00000000000E+00  0.30043208754E+04  0.30168561031E+04  0.27473045700E+03 0.  0.
         25    1    3    3    0    0  0.18609478572E+02  0.58392901127E+02  0.17954131302E+04  0.18004622605E+04  0.12000000000E+03 0.  0.
         25    1    3    3    0    0 -0.18609478572E+02 -0.58392901127E+02  0.12089077453E+04  0.12163938426E+04  0.12000000000E+03 0.  0.
<mgrwt>
<rscale>  0 0.27473046E+03</rscale>
<asrwt>0</asrwt>
<pdfrwt beam="1">  1        2 0.46316631E+00 0.27473046E+03</pdfrwt>
<pdfrwt beam="2">  1       -2 0.96425068E-03 0.27473046E+03</pdfrwt>
<totfact> 0.46166196E+03</totfact>
</mgrwt>
</event>
<event>
 5    1  0.1139158E+001  0.2753520E+03  0.7818608E-02  0.1098255E+00
         -1   -1    0    0    0  501 -0.00000000000E+00  0.00000000000E+00  0.43130776731E+02  0.43130776731E+02  0.00000000000E+00 0. -1.
          1   -1    0    0  501    0  0.00000000000E+00 -0.00000000000E+00 -0.43946990133E+03  0.43946990133E+03  0.00000000000E+00 0. -1.
         35    2    1    2    0    0  0.00000000000E+00  0.00000000000E+00 -0.39633912460E+03  0.48260067806E+03  0.27535197980E+03 0.  0.
         25    1    3    3    0    0 -0.10768977432E+02 -0.39624610388E+02 -0.10429789373E+03  0.16420758588E+03  0.12000000000E+03 0.  0.
         25    1    3    3    0    0  0.10768977432E+02  0.39624610388E+02 -0.29204123087E+03  0.31839309218E+03  0.12000000000E+03 0.  0.
<mgrwt>
<rscale>  0 0.27535198E+03</rscale>
<asrwt>0</asrwt>
<pdfrwt beam="1">  1        1 0.67610752E-01 0.27535198E+03</pdfrwt>
<pdfrwt beam="2">  1       -1 0.66355043E-02 0.27535198E+03</pdfrwt>
<totfact> 0.61111507E+03</totfact>
</mgrwt>
</event>
<event>
 5    1  0.1139158E+001  0.2747166E+03  0.7818608E-02  0.1098610E+00
          2   -1    0    0  501    0  0.00000000000E+00  0.00000000000E+00  0.18276320367E+03  0.18276320367E+03  0.00000000000E+00 0. -1.
         -2   -1    0    0    0  501 -0.00000000000E+00 -0.00000000000E+00 -0.10323358991E+03  0.10323358991E+03  0.00000000000E+00 0. -1.
         35    2    1    2    0    0  0.00000000000E+00  0.00000000000E+00  0.79529613761E+02  0.28599679359E+03  0.27471659301E+03 0.  0.
         25    1    3    3    0    0 -0.20974496479E+02 -0.63419139588E+02  0.42180618748E+02  0.14367018259E+03  0.12000000000E+03 0.  0.
         25    1    3    3    0    0  0.20974496479E+02  0.63419139588E+02  0.37348995013E+02  0.14232661099E+03  0.12000000000E+03 0.  0.
<mgrwt>
<rscale>  0 0.27471659E+03</rscale>
<asrwt>0</asrwt>
<pdfrwt beam="1">  1        2 0.28117416E-01 0.27471659E+03</pdfrwt>
<pdfrwt beam="2">  1       -2 0.15882091E-01 0.27471659E+03</pdfrwt>
<totfact> 0.58209551E+03</totfact>
</mgrwt>
</event>
<event>
 5    1  0.1139158E+001  0.2750751E+03  0.7818608E-02  0.1098410E+00
         -1   -1    0    0    0  501 -0.00000000000E+00  0.00000000000E+00  0.79258009385E+03  0.79258009385E+03  0.00000000000E+00 0. -1.
          1   -1    0    0  501    0  0.00000000000E+00 -0.00000000000E+00 -0.23867079161E+02  0.23867079161E+02  0.00000000000E+00 0. -1.
         35    2    1    2    0    0  0.00000000000E+00  0.00000000000E+00  0.76871301469E+03  0.81644717301E+03  0.27507505770E+03 0.  0.
         25    1    3    3    0    0 -0.16358076586E+02  0.46844015811E+02  0.24981912079E+03  0.28155202290E+03  0.12000000000E+03 0.  0.
         25    1    3    3    0    0  0.16358076586E+02 -0.46844015811E+02  0.51889389390E+03  0.53489515012E+03  0.12000000000E+03 0.  0.
<mgrwt>
<rscale>  0 0.27507506E+03</rscale>
<asrwt>0</asrwt>
<pdfrwt beam="1">  1        1 0.36718589E-02 0.27507506E+03</pdfrwt>
<pdfrwt beam="2">  1       -1 0.12193538E+00 0.27507506E+03</pdfrwt>
<totfact> 0.16309222E+03</totfact>
</mgrwt>
</event>
<event>
 5    1  0.1139158E+001  0.2745893E+03  0.7818608E-02  0.1098681E+00
         -2   -1    0    0    0  501 -0.00000000000E+00  0.00000000000E+00  0.37289296161E+03  0.37289296161E+03  0.00000000000E+00 0. -1.
          2   -1    0    0  501    0  0.00000000000E+00 -0.00000000000E+00 -0.50550213817E+02  0.50550213817E+02  0.00000000000E+00 0. -1.
         35    2    1    2    0    0  0.00000000000E+00  0.00000000000E+00  0.32234274779E+03  0.42344317543E+03  0.27458928559E+03 0.  0.
         25    1    3    3    0    0 -0.38597150532E+02 -0.39809598078E+02  0.21835955649E+03  0.25525563664E+03  0.12000000000E+03 0.  0.
         25    1    3    3    0    0  0.38597150532E+02  0.39809598078E+02  0.10398319131E+03  0.16818753879E+03  0.12000000000E+03 0.  0.
<mgrwt>
<rscale>  0 0.27458929E+03</rscale>
<asrwt>0</asrwt>
<pdfrwt beam="1">  1        2 0.77769562E-02 0.27458929E+03</pdfrwt>
<pdfrwt beam="2">  1       -2 0.57368146E-01 0.27458929E+03</pdfrwt>
<totfact> 0.25514498E+03</totfact>
</mgrwt>
</event>
<event>
 5    1  0.1139158E+001  0.2757267E+03  0.7818608E-02  0.1098046E+00
         -2   -1    0    0    0  501 -0.00000000000E+00  0.00000000000E+00  0.23624611267E+04  0.23624611267E+04  0.00000000000E+00 0.  1.
          2   -1    0    0  501    0  0.00000000000E+00 -0.00000000000E+00 -0.80451313380E+01  0.80451313380E+01  0.00000000000E+00 0.  1.
         35    2    1    2    0    0  0.00000000000E+00  0.00000000000E+00  0.23544159954E+04  0.23705062580E+04  0.27572674912E+03 0.  0.
         25    1    3    3    0    0 -0.48225345789E+02  0.35505630112E+02  0.90263536624E+03  0.91254421160E+03  0.12000000000E+03 0.  0.
         25    1    3    3    0    0  0.48225345789E+02 -0.35505630112E+02  0.14517806291E+04  0.14579620464E+04  0.12000000000E+03 0.  0.
<mgrwt>
<rscale>  0 0.27572675E+03</rscale>
<asrwt>0</asrwt>
<pdfrwt beam="1">  1        2 0.12377144E-02 0.27572675E+03</pdfrwt>
<pdfrwt beam="2">  1       -2 0.36345500E+00 0.27572675E+03</pdfrwt>
<totfact> 0.16341483E+02</totfact>
</mgrwt>
</event>
<event>
 5    1  0.1139158E+001  0.2751411E+03  0.7818608E-02  0.1098373E+00
         -2   -1    0    0    0  501 -0.00000000000E+00  0.00000000000E+00  0.23236039149E+02  0.23236039149E+02  0.00000000000E+00 0. -1.
          2   -1    0    0  501    0  0.00000000000E+00 -0.00000000000E+00 -0.81449583334E+03  0.81449583334E+03  0.00000000000E+00 0. -1.
         35    2    1    2    0    0  0.00000000000E+00  0.00000000000E+00 -0.79125979419E+03  0.83773187249E+03  0.27514110613E+03 0.  0.
         25    1    3    3    0    0 -0.23008468010E+02  0.43339119689E+02 -0.53575350970E+03  0.55121637499E+03  0.12000000000E+03 0.  0.
         25    1    3    3    0    0  0.23008468010E+02 -0.43339119689E+02 -0.25550628449E+03  0.28651549750E+03  0.12000000000E+03 0.  0.
<mgrwt>
<rscale>  0 0.27514111E+03</rscale>
<asrwt>0</asrwt>
<pdfrwt beam="1">  1        2 0.12530704E+00 0.27514111E+03</pdfrwt>
<pdfrwt beam="2">  1       -2 0.35747755E-02 0.27514111E+03</pdfrwt>
<totfact> 0.11249606E+04</totfact>
</mgrwt>
</event>
<event>
 5    1  0.1139158E+001  0.2752486E+03  0.7818608E-02  0.1098313E+00
         -3   -1    0    0    0  501 -0.00000000000E+00  0.00000000000E+00  0.18108447189E+03  0.18108447189E+03  0.00000000000E+00 0.  1.
          3   -1    0    0  501    0  0.00000000000E+00 -0.00000000000E+00 -0.10459451979E+03  0.10459451979E+03  0.00000000000E+00 0.  1.
         35    2    1    2    0    0  0.00000000000E+00  0.00000000000E+00  0.76489952103E+02  0.28567899169E+03  0.27524856679E+03 0.  0.
         25    1    3    3    0    0  0.54189926661E+02 -0.25120966078E+02  0.70617176951E+02  0.15150708488E+03  0.12000000000E+03 0.  0.
         25    1    3    3    0    0 -0.54189926661E+02  0.25120966078E+02  0.58727751518E+01  0.13417190681E+03  0.12000000000E+03 0.  0.
<mgrwt>
<rscale>  0 0.27524857E+03</rscale>
<asrwt>0</asrwt>
<pdfrwt beam="1">  1        3 0.16091465E-01 0.27524857E+03</pdfrwt>
<pdfrwt beam="2">  1       -3 0.27859150E-01 0.27524857E+03</pdfrwt>
<totfact> 0.10298146E+03</totfact>
</mgrwt>
</event>
<event>
 5    1  0.1139158E+001  0.2749919E+03  0.7818608E-02  0.1098456E+00
          1   -1    0    0  501    0  0.00000000000E+00  0.00000000000E+00  0.14919424098E+02  0.14919424098E+02  0.00000000000E+00 0. -1.
         -1   -1    0    0    0  501 -0.00000000000E+00 -0.00000000000E+00 -0.12671491323E+04  0.12671491323E+04  0.00000000000E+00 0. -1.
         35    2    1    2    0    0  0.00000000000E+00  0.00000000000E+00 -0.12522297082E+04  0.12820685564E+04  0.27499189297E+03 0.  0.
         25    1    3    3    0    0  0.64049262846E+02  0.25511228230E+01 -0.71892892165E+03  0.73168819225E+03  0.12000000000E+03 0.  0.
         25    1    3    3    0    0 -0.64049262846E+02 -0.25511228230E+01 -0.53330078656E+03  0.55038036415E+03  0.12000000000E+03 0.  0.
<mgrwt>
<rscale>  0 0.27499189E+03</rscale>
<asrwt>0</asrwt>
<pdfrwt beam="1">  1        1 0.22952963E-02 0.27499189E+03</pdfrwt>
<pdfrwt beam="2">  1       -1 0.19494600E+00 0.27499189E+03</pdfrwt>
<totfact> 0.89862599E+02</totfact>
</mgrwt>
</event>
<event>
 5    1  0.1139158E+001  0.2759409E+03  0.7818608E-02  0.1097927E+00
         -2   -1    0    0    0  501 -0.00000000000E+00  0.00000000000E+00  0.57142190822E+02  0.57142190822E+02  0.00000000000E+00 0.  1.
          2   -1    0    0  501    0  0.00000000000E+00 -0.00000000000E+00 -0.33313111239E+03  0.33313111239E+03  0.00000000000E+00 0.  1.
         35    2    1    2    0    0  0.00000000000E+00  0.00000000000E+00 -0.27598892157E+03  0.39027330322E+03  0.27594087478E+03 0.  0.
         25    1    3    3    0    0  0.22607026898E+02 -0.61804251771E+02 -0.11329419754E+03  0.17766940761E+03  0.12000000000E+03 0.  0.
         25    1    3    3    0    0 -0.22607026898E+02  0.61804251771E+02 -0.16269472403E+03  0.21260389561E+03  0.12000000000E+03 0.  0.
<mgrwt>
<rscale>  0 0.27594087E+03</rscale>
<asrwt>0</asrwt>
<pdfrwt beam="1">  1        2 0.51250940E-01 0.27594087E+03</pdfrwt>
<pdfrwt beam="2">  1       -2 0.87911064E-02 0.27594087E+03</pdfrwt>
<totfact> 0.78911672E+03</totfact>
</mgrwt>
</event>
<event>
 5    1  0.1139158E+001  0.2832735E+03  0.7818608E-02  0.1093914E+00
          1   -1    0    0  501    0  0.00000000000E+00  0.00000000000E+00  0.12919270545E+04  0.12919270545E+04  0.00000000000E+00 0.  1.
         -1   -1    0    0    0  501 -0.00000000000E+00 -0.00000000000E+00 -0.15527944415E+02  0.15527944415E+02  0.00000000000E+00 0.  1.
         35    2    1    2    0    0  0.00000000000E+00  0.00000000000E+00  0.12763991101E+04  0.13074549989E+04  0.28327351794E+03 0.  0.
         25    1    3    3    0    0 -0.61726852823E+02  0.22200293890E+02  0.46811811667E+03  0.48768599381E+03  0.12000000000E+03 0.  0.
         25    1    3    3    0    0  0.61726852823E+02 -0.22200293890E+02  0.80828099343E+03  0.81976900512E+03  0.12000000000E+03 0.  0.
<mgrwt>
<rscale>  0 0.28327352E+03</rscale>
<asrwt>0</asrwt>
<pdfrwt beam="1">  1        1 0.19875792E+00 0.28327352E+03</pdfrwt>
<pdfrwt beam="2">  1       -1 0.23889156E-02 0.28327352E+03</pdfrwt>
<totfact> 0.52230882E+03</totfact>
</mgrwt>
</event>
<event>
 4    1  0.1139158E+001  0.2562126E+03  0.7818608E-02  0.1109440E+00
         -2   -1    0    0    0  501 -0.00000000000E+00  0.00000000000E+00  0.90328042999E+02  0.90328042999E+02  0.00000000000E+00 0. -1.
          2   -1    0    0  501    0  0.00000000000E+00 -0.00000000000E+00 -0.18168471775E+03  0.18168471775E+03  0.00000000000E+00 0. -1.
         25    1    1    2    0    0  0.36790488825E+02 -0.25238329597E+02 -0.50509994534E+02  0.13762911355E+03  0.12000000000E+03 0.  0.
         25    1    1    2    0    0 -0.36790488825E+02  0.25238329597E+02 -0.40846680213E+02  0.13438364719E+03  0.12000000000E+03 0.  0.
<mgrwt>
<rscale>  0 0.25621261E+03</rscale>
<asrwt>0</asrwt>
<pdfrwt beam="1">  1        2 0.27951495E-01 0.25621261E+03</pdfrwt>
<pdfrwt beam="2">  1       -2 0.13896622E-01 0.25621261E+03</pdfrwt>
<totfact> 0.72830517E+03</totfact>
</mgrwt>
</event>
<event>
 5    1  0.1139158E+001  0.2752684E+03  0.7818608E-02  0.1098302E+00
         -1   -1    0    0    0  501 -0.00000000000E+00  0.00000000000E+00  0.14327704938E+02  0.14327704938E+02  0.00000000000E+00 0.  1.
          1   -1    0    0  501    0  0.00000000000E+00 -0.00000000000E+00 -0.13221357741E+04  0.13221357741E+04  0.00000000000E+00 0.  1.
         35    2    1    2    0    0  0.00000000000E+00  0.00000000000E+00 -0.13078080692E+04  0.13364634791E+04  0.27526838729E+03 0.  0.
         25    1    3    3    0    0  0.63894447180E+02 -0.74381082327E+01 -0.55615479328E+03  0.57257836138E+03  0.12000000000E+03 0.  0.
         25    1    3    3    0    0 -0.63894447180E+02  0.74381082327E+01 -0.75165327593E+03  0.76388511771E+03  0.12000000000E+03 0.  0.
<mgrwt>
<rscale>  0 0.27526839E+03</rscale>
<asrwt>0</asrwt>
<pdfrwt beam="1">  1        1 0.20340548E+00 0.27526839E+03</pdfrwt>
<pdfrwt beam="2">  1       -1 0.22042626E-02 0.27526839E+03</pdfrwt>
<totfact> 0.56026476E+03</totfact>
</mgrwt>
</event>
<event>
 5    1  0.1139158E+001  0.2762973E+03  0.7818608E-02  0.1097729E+00
         -3   -1    0    0    0  501 -0.00000000000E+00  0.00000000000E+00  0.27376431174E+02  0.27376431174E+02  0.00000000000E+00 0.  1.
          3   -1    0    0  501    0  0.00000000000E+00 -0.00000000000E+00 -0.69713410304E+03  0.69713410304E+03  0.00000000000E+00 0.  1.
         35    2    1    2    0    0  0.00000000000E+00  0.00000000000E+00 -0.66975767187E+03  0.72451053422E+03  0.27629725870E+03 0.  0.
         25    1    3    3    0    0  0.64370177364E+02 -0.17599820254E+02 -0.29495823239E+03  0.32535155180E+03  0.12000000000E+03 0.  0.
         25    1    3    3    0    0 -0.64370177364E+02  0.17599820254E+02 -0.37479943948E+03  0.39915898242E+03  0.12000000000E+03 0.  0.
<mgrwt>
<rscale>  0 0.27629726E+03</rscale>
<asrwt>0</asrwt>
<pdfrwt beam="1">  1        3 0.10725139E+00 0.27629726E+03</pdfrwt>
<pdfrwt beam="2">  1       -3 0.42117590E-02 0.27629726E+03</pdfrwt>
<totfact> 0.58611710E+02</totfact>
</mgrwt>
</event>
<event>
 5    1  0.1139158E+001  0.2746461E+03  0.7818608E-02  0.1098650E+00
         -2   -1    0    0    0  501 -0.00000000000E+00  0.00000000000E+00  0.81851664521E+01  0.81851664521E+01  0.00000000000E+00 0.  1.
          2   -1    0    0  501    0  0.00000000000E+00 -0.00000000000E+00 -0.23038777367E+04  0.23038777367E+04  0.00000000000E+00 0.  1.
         35    2    1    2    0    0  0.00000000000E+00  0.00000000000E+00 -0.22956925702E+04  0.23120629031E+04  0.27464611965E+03 0.  0.
         25    1    3    3    0    0  0.29830613813E+01  0.49703589131E+02 -0.15222755329E+04  0.15278095901E+04  0.12000000000E+03 0.  0.
         25    1    3    3    0    0 -0.29830613813E+01 -0.49703589131E+02 -0.77341703731E+03  0.78425331305E+03  0.12000000000E+03 0.  0.
<mgrwt>
<rscale>  0 0.27464612E+03</rscale>
<asrwt>0</asrwt>
<pdfrwt beam="1">  1        2 0.35444273E+00 0.27464612E+03</pdfrwt>
<pdfrwt beam="2">  1       -2 0.12592564E-02 0.27464612E+03</pdfrwt>
<totfact> 0.78076546E+03</totfact>
</mgrwt>
</event>
<event>
 5    1  0.1139158E+001  0.2753350E+03  0.7818608E-02  0.1098264E+00
          2   -1    0    0  501    0  0.00000000000E+00  0.00000000000E+00  0.34958421505E+03  0.34958421505E+03  0.00000000000E+00 0.  1.
         -2   -1    0    0    0  501 -0.00000000000E+00 -0.00000000000E+00 -0.54213967965E+02  0.54213967965E+02  0.00000000000E+00 0.  1.
         35    2    1    2    0    0  0.00000000000E+00  0.00000000000E+00  0.29537024709E+03  0.40379818302E+03  0.27533504997E+03 0.  0.
         25    1    3    3    0    0 -0.67386382129E+02  0.33094441146E+01  0.14869110866E+03  0.20263494938E+03  0.12000000000E+03 0.  0.
         25    1    3    3    0    0  0.67386382129E+02 -0.33094441146E+01  0.14667913843E+03  0.20116323364E+03  0.12000000000E+03 0.  0.
<mgrwt>
<rscale>  0 0.27533505E+03</rscale>
<asrwt>0</asrwt>
<pdfrwt beam="1">  1        2 0.53782185E-01 0.27533505E+03</pdfrwt>
<pdfrwt beam="2">  1       -2 0.83406107E-02 0.27533505E+03</pdfrwt>
<totfact> 0.81356772E+03</totfact>
</mgrwt>
</event>
<event>
 5    1  0.1139158E+001  0.2665371E+03  0.7818608E-02  0.1103278E+00
          1   -1    0    0  501    0  0.00000000000E+00  0.00000000000E+00  0.44464699081E+03  0.44464699081E+03  0.00000000000E+00 0.  1.
         -1   -1    0    0    0  501 -0.00000000000E+00 -0.00000000000E+00 -0.39942935188E+02  0.39942935188E+02  0.00000000000E+00 0.  1.
         35    2    1    2    0    0  0.00000000000E+00  0.00000000000E+00  0.40470405562E+03  0.48458992599E+03  0.26653709637E+03 0.  0.
         25    1    3    3    0    0 -0.34062026957E+02 -0.49109892737E+01  0.28716509578E+03  0.31312638300E+03  0.12000000000E+03 0.  0.
         25    1    3    3    0    0  0.34062026957E+02  0.49109892737E+01  0.11753895984E+03  0.17146354299E+03  0.12000000000E+03 0.  0.
<mgrwt>
<rscale>  0 0.26653710E+03</rscale>
<asrwt>0</asrwt>
<pdfrwt beam="1">  1        1 0.68407226E-01 0.26653710E+03</pdfrwt>
<pdfrwt beam="2">  1       -1 0.61450673E-02 0.26653710E+03</pdfrwt>
<totfact> 0.67525612E+03</totfact>
</mgrwt>
</event>
<event>
 5    1  0.1139158E+001  0.2756348E+03  0.7818608E-02  0.1098097E+00
          2   -1    0    0  501    0  0.00000000000E+00  0.00000000000E+00  0.11051845552E+04  0.11051845552E+04  0.00000000000E+00 0. -1.
         -2   -1    0    0    0  501 -0.00000000000E+00 -0.00000000000E+00 -0.17185941119E+02  0.17185941119E+02  0.00000000000E+00 0. -1.
         35    2    1    2    0    0  0.00000000000E+00  0.00000000000E+00  0.10879986141E+04  0.11223704964E+04  0.27563480689E+03 0.  0.
         25    1    3    3    0    0  0.57604769816E+02  0.25699833279E+02  0.44303095388E+03  0.46330898657E+03  0.12000000000E+03 0.  0.
         25    1    3    3    0    0 -0.57604769816E+02 -0.25699833279E+02  0.64496766023E+03  0.65906150979E+03  0.12000000000E+03 0.  0.
<mgrwt>
<rscale>  0 0.27563481E+03</rscale>
<asrwt>0</asrwt>
<pdfrwt beam="1">  1        2 0.17002834E+00 0.27563481E+03</pdfrwt>
<pdfrwt beam="2">  1       -2 0.26439918E-02 0.27563481E+03</pdfrwt>
<totfact> 0.11579257E+04</totfact>
</mgrwt>
</event>
<event>
 5    1  0.1139158E+001  0.2752247E+03  0.7818608E-02  0.1098326E+00
         -2   -1    0    0    0  501 -0.00000000000E+00  0.00000000000E+00  0.31037367815E+02  0.31037367815E+02  0.00000000000E+00 0.  1.
          2   -1    0    0  501    0  0.00000000000E+00 -0.00000000000E+00 -0.61014072996E+03  0.61014072996E+03  0.00000000000E+00 0.  1.
         35    2    1    2    0    0  0.00000000000E+00  0.00000000000E+00 -0.57910336215E+03  0.64117809778E+03  0.27522472458E+03 0.  0.
         25    1    3    3    0    0  0.52727864755E+02 -0.61768061918E+01 -0.19296848324E+03  0.23335641448E+03  0.12000000000E+03 0.  0.
         25    1    3    3    0    0 -0.52727864755E+02  0.61768061918E+01 -0.38613487891E+03  0.40782168329E+03  0.12000000000E+03 0.  0.
<mgrwt>
<rscale>  0 0.27522472E+03</rscale>
<asrwt>0</asrwt>
<pdfrwt beam="1">  1        2 0.93867787E-01 0.27522472E+03</pdfrwt>
<pdfrwt beam="2">  1       -2 0.47749805E-02 0.27522472E+03</pdfrwt>
<totfact> 0.10343492E+04</totfact>
</mgrwt>
</event>
<event>
 5    1  0.1139158E+001  0.2883192E+03  0.7818608E-02  0.1091230E+00
         -1   -1    0    0    0  501 -0.00000000000E+00  0.00000000000E+00  0.17777956173E+03  0.17777956173E+03  0.00000000000E+00 0.  1.
          1   -1    0    0  501    0  0.00000000000E+00 -0.00000000000E+00 -0.11689750991E+03  0.11689750991E+03  0.00000000000E+00 0.  1.
         35    2    1    2    0    0  0.00000000000E+00  0.00000000000E+00  0.60882051815E+02  0.29467707164E+03  0.28831918479E+03 0.  0.
         25    1    3    3    0    0 -0.56370034209E+02 -0.17950947399E+02 -0.24428683704E+02  0.13600212446E+03  0.12000000000E+03 0.  0.
         25    1    3    3    0    0  0.56370034209E+02  0.17950947399E+02  0.85310735520E+02  0.15867494719E+03  0.12000000000E+03 0.  0.
<mgrwt>
<rscale>  0 0.28831918E+03</rscale>
<asrwt>0</asrwt>
<pdfrwt beam="1">  1        1 0.17984232E-01 0.28831918E+03</pdfrwt>
<pdfrwt beam="2">  1       -1 0.27350702E-01 0.28831918E+03</pdfrwt>
<totfact> 0.34986101E+03</totfact>
</mgrwt>
</event>
<event>
 5    1  0.1139158E+001  0.2748416E+03  0.7818608E-02  0.1098540E+00
         -2   -1    0    0    0  501 -0.00000000000E+00  0.00000000000E+00  0.17999898100E+02  0.17999898100E+02  0.00000000000E+00 0. -1.
          2   -1    0    0  501    0  0.00000000000E+00 -0.00000000000E+00 -0.10491431605E+04  0.10491431605E+04  0.00000000000E+00 0. -1.
         35    2    1    2    0    0  0.00000000000E+00  0.00000000000E+00 -0.10311432624E+04  0.10671430586E+04  0.27484155422E+03 0.  0.
         25    1    3    3    0    0  0.24017845646E+02 -0.42691546393E+02 -0.69286723128E+03  0.70488610798E+03  0.12000000000E+03 0.  0.
         25    1    3    3    0    0 -0.24017845646E+02  0.42691546393E+02 -0.33827603114E+03  0.36225695064E+03  0.12000000000E+03 0.  0.
<mgrwt>
<rscale>  0 0.27484155E+03</rscale>
<asrwt>0</asrwt>
<pdfrwt beam="1">  1        2 0.16140666E+00 0.27484155E+03</pdfrwt>
<pdfrwt beam="2">  1       -2 0.27692148E-02 0.27484155E+03</pdfrwt>
<totfact> 0.11669314E+04</totfact>
</mgrwt>
</event>
<event>
 5    1  0.1139158E+001  0.2753998E+03  0.7818608E-02  0.1098228E+00
          3   -1    0    0  501    0  0.00000000000E+00  0.00000000000E+00  0.10331213454E+04  0.10331213454E+04  0.00000000000E+00 0. -1.
         -3   -1    0    0    0  501 -0.00000000000E+00 -0.00000000000E+00 -0.18353371928E+02  0.18353371928E+02  0.00000000000E+00 0. -1.
         35    2    1    2    0    0  0.00000000000E+00  0.00000000000E+00  0.10147679735E+04  0.10514747174E+04  0.27539978431E+03 0.  0.
         25    1    3    3    0    0  0.18878837540E+02 -0.48346806548E+02  0.67237417293E+03  0.68496777489E+03  0.12000000000E+03 0.  0.
         25    1    3    3    0    0 -0.18878837540E+02  0.48346806548E+02  0.34239380058E+03  0.36650694248E+03  0.12000000000E+03 0.  0.
<mgrwt>
<rscale>  0 0.27539978E+03</rscale>
<asrwt>0</asrwt>
<pdfrwt beam="1">  1        3 0.15894170E+00 0.27539978E+03</pdfrwt>
<pdfrwt beam="2">  1       -3 0.28235965E-02 0.27539978E+03</pdfrwt>
<totfact> 0.42060351E+02</totfact>
</mgrwt>
</event>
<event>
 5    1  0.1139158E+001  0.2781092E+03  0.7818608E-02  0.1096726E+00
         -1   -1    0    0    0  501 -0.00000000000E+00  0.00000000000E+00  0.15382516653E+04  0.15382516653E+04  0.00000000000E+00 0.  1.
          1   -1    0    0  501    0  0.00000000000E+00 -0.00000000000E+00 -0.12570230316E+02  0.12570230316E+02  0.00000000000E+00 0.  1.
         35    2    1    2    0    0  0.00000000000E+00  0.00000000000E+00  0.15256814350E+04  0.15508218956E+04  0.27810917077E+03 0.  0.
         25    1    3    3    0    0  0.37918239409E+02  0.20376971961E+02  0.45320937446E+03  0.47079905582E+03  0.12000000000E+03 0.  0.
         25    1    3    3    0    0 -0.37918239409E+02 -0.20376971961E+02  0.10724720605E+04  0.10800228398E+04  0.12000000000E+03 0.  0.
<mgrwt>
<rscale>  0 0.27810917E+03</rscale>
<asrwt>0</asrwt>
<pdfrwt beam="1">  1        1 0.19338828E-02 0.27810917E+03</pdfrwt>
<pdfrwt beam="2">  1       -1 0.23665395E+00 0.27810917E+03</pdfrwt>
<totfact> 0.61161028E+02</totfact>
</mgrwt>
</event>
<event>
 5    1  0.1139158E+001  0.2759205E+03  0.7818608E-02  0.1097938E+00
         -2   -1    0    0    0  501 -0.00000000000E+00  0.00000000000E+00  0.16285743609E+03  0.16285743609E+03  0.00000000000E+00 0. -1.
          2   -1    0    0  501    0  0.00000000000E+00 -0.00000000000E+00 -0.11686929671E+03  0.11686929671E+03  0.00000000000E+00 0. -1.
         35    2    1    2    0    0  0.00000000000E+00  0.00000000000E+00  0.45988139375E+02  0.27972673280E+03  0.27592052493E+03 0.  0.
         25    1    3    3    0    0 -0.17304762845E+02 -0.15513572028E+01 -0.43725418387E+02  0.12889442866E+03  0.12000000000E+03 0.  0.
         25    1    3    3    0    0  0.17304762845E+02  0.15513572028E+01  0.89713557762E+02  0.15083230414E+03  0.12000000000E+03 0.  0.
<mgrwt>
<rscale>  0 0.27592052E+03</rscale>
<asrwt>0</asrwt>
<pdfrwt beam="1">  1        2 0.17979892E-01 0.27592052E+03</pdfrwt>
<pdfrwt beam="2">  1       -2 0.25054990E-01 0.27592052E+03</pdfrwt>
<totfact> 0.44245100E+03</totfact>
</mgrwt>
</event>
<event>
 5    1  0.1139158E+001  0.2764956E+03  0.7818608E-02  0.1097618E+00
         -1   -1    0    0    0  501 -0.00000000000E+00  0.00000000000E+00  0.18791125515E+02  0.18791125515E+02  0.00000000000E+00 0. -1.
          1   -1    0    0  501    0  0.00000000000E+00 -0.00000000000E+00 -0.10171002423E+04  0.10171002423E+04  0.00000000000E+00 0. -1.
         35    2    1    2    0    0  0.00000000000E+00  0.00000000000E+00 -0.99830911680E+03  0.10358913678E+04  0.27649562973E+03 0.  0.
         25    1    3    3    0    0  0.24680483144E+02 -0.62373074175E+02 -0.55382418254E+03  0.57063188817E+03  0.12000000000E+03 0.  0.
         25    1    3    3    0    0 -0.24680483144E+02  0.62373074175E+02 -0.44448493426E+03  0.46525947966E+03  0.12000000000E+03 0.  0.
<mgrwt>
<rscale>  0 0.27649563E+03</rscale>
<asrwt>0</asrwt>
<pdfrwt beam="1">  1        1 0.15647697E+00 0.27649563E+03</pdfrwt>
<pdfrwt beam="2">  1       -1 0.28909422E-02 0.27649563E+03</pdfrwt>
<totfact> 0.61835052E+03</totfact>
</mgrwt>
</event>
<event>
 5    1  0.1139158E+001  0.2759987E+03  0.7818608E-02  0.1097895E+00
         -2   -1    0    0    0  501 -0.00000000000E+00  0.00000000000E+00  0.10673274758E+03  0.10673274758E+03  0.00000000000E+00 0.  1.
          2   -1    0    0  501    0  0.00000000000E+00 -0.00000000000E+00 -0.17842530897E+03  0.17842530897E+03  0.00000000000E+00 0.  1.
         35    2    1    2    0    0  0.00000000000E+00  0.00000000000E+00 -0.71692561390E+02  0.28515805655E+03  0.27599872075E+03 0.  0.
         25    1    3    3    0    0 -0.59851762482E+02 -0.29029201095E+02 -0.51132390317E+02  0.14642216133E+03  0.12000000000E+03 0.  0.
         25    1    3    3    0    0  0.59851762482E+02  0.29029201095E+02 -0.20560171073E+02  0.13873589522E+03  0.12000000000E+03 0.  0.
<mgrwt>
<rscale>  0 0.27599872E+03</rscale>
<asrwt>0</asrwt>
<pdfrwt beam="1">  1        2 0.27450047E-01 0.27599872E+03</pdfrwt>
<pdfrwt beam="2">  1       -2 0.16420423E-01 0.27599872E+03</pdfrwt>
<totfact> 0.56556115E+03</totfact>
</mgrwt>
</event>
<event>
 5    1  0.1139158E+001  0.2749547E+03  0.7818608E-02  0.1098477E+00
         -1   -1    0    0    0  501 -0.00000000000E+00  0.00000000000E+00  0.30091963127E+02  0.30091963127E+02  0.00000000000E+00 0.  1.
          1   -1    0    0  501    0  0.00000000000E+00 -0.00000000000E+00 -0.62807531568E+03  0.62807531568E+03  0.00000000000E+00 0.  1.
         35    2    1    2    0    0  0.00000000000E+00  0.00000000000E+00 -0.59798335255E+03  0.65816727881E+03  0.27495468165E+03 0.  0.
         25    1    3    3    0    0  0.23288387770E+01  0.51626566866E+02 -0.40137208182E+03  0.42210220796E+03  0.12000000000E+03 0.  0.
         25    1    3    3    0    0 -0.23288387770E+01 -0.51626566866E+02 -0.19661127073E+03  0.23606507085E+03  0.12000000000E+03 0.  0.
<mgrwt>
<rscale>  0 0.27495468E+03</rscale>
<asrwt>0</asrwt>
<pdfrwt beam="1">  1        1 0.96626968E-01 0.27495468E+03</pdfrwt>
<pdfrwt beam="2">  1       -1 0.46295330E-02 0.27495468E+03</pdfrwt>
<totfact> 0.64929472E+03</totfact>
</mgrwt>
</event>
<event>
 5    1  0.1139158E+001  0.2752021E+03  0.7818608E-02  0.1098339E+00
         -1   -1    0    0    0  501 -0.00000000000E+00  0.00000000000E+00  0.30868693242E+02  0.30868693242E+02  0.00000000000E+00 0. -1.
          1   -1    0    0  501    0  0.00000000000E+00 -0.00000000000E+00 -0.61337374650E+03  0.61337374650E+03  0.00000000000E+00 0. -1.
         35    2    1    2    0    0  0.00000000000E+00  0.00000000000E+00 -0.58250505326E+03  0.64424243974E+03  0.27520207865E+03 0.  0.
         25    1    3    3    0    0 -0.42263652498E+02  0.10227081531E+02 -0.41160794105E+03  0.43094304340E+03  0.12000000000E+03 0.  0.
         25    1    3    3    0    0  0.42263652498E+02 -0.10227081531E+02 -0.17089711221E+03  0.21329939634E+03  0.12000000000E+03 0.  0.
<mgrwt>
<rscale>  0 0.27520208E+03</rscale>
<asrwt>0</asrwt>
<pdfrwt beam="1">  1        1 0.94365198E-01 0.27520208E+03</pdfrwt>
<pdfrwt beam="2">  1       -1 0.47490294E-02 0.27520208E+03</pdfrwt>
<totfact> 0.64615297E+03</totfact>
</mgrwt>
</event>
<event>
 5    1  0.1139158E+001  0.2750270E+03  0.7818608E-02  0.1098436E+00
         -3   -1    0    0    0  501 -0.00000000000E+00  0.00000000000E+00  0.28755215445E+03  0.28755215445E+03  0.00000000000E+00 0. -1.
          3   -1    0    0  501    0  0.00000000000E+00 -0.00000000000E+00 -0.65761865373E+02  0.65761865373E+02  0.00000000000E+00 0. -1.
         35    2    1    2    0    0  0.00000000000E+00  0.00000000000E+00  0.22179028908E+03  0.35331401982E+03  0.27502702463E+03 0.  0.
         25    1    3    3    0    0 -0.25573891490E+02  0.60389441826E+02  0.92320593133E+02  0.16499697126E+03  0.12000000000E+03 0.  0.
         25    1    3    3    0    0  0.25573891490E+02 -0.60389441826E+02  0.12946969595E+03  0.18831704856E+03  0.12000000000E+03 0.  0.
<mgrwt>
<rscale>  0 0.27502702E+03</rscale>
<asrwt>0</asrwt>
<pdfrwt beam="1">  1        3 0.10117210E-01 0.27502702E+03</pdfrwt>
<pdfrwt beam="2">  1       -3 0.44238792E-01 0.27502702E+03</pdfrwt>
<totfact> 0.93804804E+02</totfact>
</mgrwt>
</event>
<event>
 5    1  0.1139158E+001  0.2654941E+03  0.7818608E-02  0.1103886E+00
          2   -1    0    0  501    0  0.00000000000E+00  0.00000000000E+00  0.59413500965E+03  0.59413500965E+03  0.00000000000E+00 0. -1.
         -2   -1    0    0    0  501 -0.00000000000E+00 -0.00000000000E+00 -0.29659549038E+02  0.29659549038E+02  0.00000000000E+00 0. -1.
         35    2    1    2    0    0  0.00000000000E+00  0.00000000000E+00  0.56447546061E+03  0.62379455868E+03  0.26549407868E+03 0.  0.
         25    1    3    3    0    0 -0.13595870726E+01  0.51784658483E+02  0.33674942750E+03  0.36122524310E+03  0.12000000000E+03 0.  0.
         25    1    3    3    0    0  0.13595870726E+01 -0.51784658483E+02  0.22772603311E+03  0.26256931559E+03  0.12000000000E+03 0.  0.
<mgrwt>
<rscale>  0 0.26549408E+03</rscale>
<asrwt>0</asrwt>
<pdfrwt beam="1">  1        2 0.91405377E-01 0.26549408E+03</pdfrwt>
<pdfrwt beam="2">  1       -2 0.45630080E-02 0.26549408E+03</pdfrwt>
<totfact> 0.11411136E+04</totfact>
</mgrwt>
</event>
<event>
 5    1  0.1139158E+001  0.2763984E+03  0.7818608E-02  0.1097672E+00
          2   -1    0    0  501    0  0.00000000000E+00  0.00000000000E+00  0.25103917169E+04  0.25103917169E+04  0.00000000000E+00 0. -1.
         -2   -1    0    0    0  501 -0.00000000000E+00 -0.00000000000E+00 -0.76079847580E+01  0.76079847580E+01  0.00000000000E+00 0. -1.
         35    2    1    2    0    0  0.00000000000E+00  0.00000000000E+00  0.25027837322E+04  0.25179997017E+04  0.27639842199E+03 0.  0.
         25    1    3    3    0    0 -0.21558693223E+02 -0.59438784885E+02  0.14926402727E+04  0.14987904223E+04  0.12000000000E+03 0.  0.
         25    1    3    3    0    0  0.21558693223E+02  0.59438784885E+02  0.10101434595E+04  0.10192092794E+04  0.12000000000E+03 0.  0.
<mgrwt>
<rscale>  0 0.27639842E+03</rscale>
<asrwt>0</asrwt>
<pdfrwt beam="1">  1        2 0.38621345E+00 0.27639842E+03</pdfrwt>
<pdfrwt beam="2">  1       -2 0.11704612E-02 0.27639842E+03</pdfrwt>
<totfact> 0.67109730E+03</totfact>
</mgrwt>
</event>
<event>
 5    1  0.1139158E+001  0.2751471E+03  0.7818608E-02  0.1098369E+00
         -2   -1    0    0    0  501 -0.00000000000E+00  0.00000000000E+00  0.20211017510E+03  0.20211017510E+03  0.00000000000E+00 0. -1.
          2   -1    0    0  501    0  0.00000000000E+00 -0.00000000000E+00 -0.93644383528E+02  0.93644383528E+02  0.00000000000E+00 0. -1.
         35    2    1    2    0    0  0.00000000000E+00  0.00000000000E+00  0.10846579157E+03  0.29575455863E+03  0.27514710794E+03 0.  0.
         25    1    3    3    0    0 -0.68437856597E+01 -0.51050213334E+02  0.77068883601E+01  0.13081421105E+03  0.12000000000E+03 0.  0.
         25    1    3    3    0    0  0.68437856597E+01  0.51050213334E+02  0.10075890321E+03  0.16494034758E+03  0.12000000000E+03 0.  0.
<mgrwt>
<rscale>  0 0.27514711E+03</rscale>
<asrwt>0</asrwt>
<pdfrwt beam="1">  1        2 0.14406828E-01 0.27514711E+03</pdfrwt>
<pdfrwt beam="2">  1       -2 0.31093873E-01 0.27514711E+03</pdfrwt>
<totfact> 0.38955904E+03</totfact>
</mgrwt>
</event>
<event>
 5    1  0.1139158E+001  0.2756126E+03  0.7818608E-02  0.1098110E+00
         -1   -1    0    0    0  501 -0.00000000000E+00  0.00000000000E+00  0.37928478776E+02  0.37928478776E+02  0.00000000000E+00 0. -1.
          1   -1    0    0  501    0  0.00000000000E+00 -0.00000000000E+00 -0.50069421831E+03  0.50069421831E+03  0.00000000000E+00 0. -1.
         35    2    1    2    0    0  0.00000000000E+00  0.00000000000E+00 -0.46276573954E+03  0.53862269709E+03  0.27561255438E+03 0.  0.
         25    1    3    3    0    0  0.51926232683E+02 -0.42634818249E+02 -0.21428897738E+03  0.25462487544E+03  0.12000000000E+03 0.  0.
         25    1    3    3    0    0 -0.51926232683E+02  0.42634818249E+02 -0.24847676216E+03  0.28399782165E+03  0.12000000000E+03 0.  0.
<mgrwt>
<rscale>  0 0.27561255E+03</rscale>
<asrwt>0</asrwt>
<pdfrwt beam="1">  1        1 0.77029884E-01 0.27561255E+03</pdfrwt>
<pdfrwt beam="2">  1       -1 0.58351503E-02 0.27561255E+03</pdfrwt>
<totfact> 0.62528730E+03</totfact>
</mgrwt>
</event>
<event>
 5    1  0.1139158E+001  0.2753093E+03  0.7818608E-02  0.1098279E+00
          3   -1    0    0  501    0  0.00000000000E+00  0.00000000000E+00  0.28170062885E+03  0.28170062885E+03  0.00000000000E+00 0.  1.
         -3   -1    0    0    0  501 -0.00000000000E+00 -0.00000000000E+00 -0.67265742593E+02  0.67265742593E+02  0.00000000000E+00 0.  1.
         35    2    1    2    0    0  0.00000000000E+00  0.00000000000E+00  0.21443488626E+03  0.34896637144E+03  0.27530929507E+03 0.  0.
         25    1    3    3    0    0 -0.61214729367E+02 -0.24448602721E+02  0.89121087070E+02  0.16336323156E+03  0.12000000000E+03 0.  0.
         25    1    3    3    0    0  0.61214729367E+02  0.24448602721E+02  0.12531379919E+03  0.18560313988E+03  0.12000000000E+03 0.  0.
<mgrwt>
<rscale>  0 0.27530930E+03</rscale>
<asrwt>0</asrwt>
<pdfrwt beam="1">  1        3 0.43338558E-01 0.27530930E+03</pdfrwt>
<pdfrwt beam="2">  1       -3 0.10348576E-01 0.27530930E+03</pdfrwt>
<totfact> 0.94113232E+02</totfact>
</mgrwt>
</event>
<event>
 5    1  0.1139158E+001  0.2756674E+03  0.7818608E-02  0.1098079E+00
         -2   -1    0    0    0  501 -0.00000000000E+00  0.00000000000E+00  0.19827704162E+02  0.19827704162E+02  0.00000000000E+00 0. -1.
          2   -1    0    0  501    0  0.00000000000E+00 -0.00000000000E+00 -0.95816083179E+03  0.95816083179E+03  0.00000000000E+00 0. -1.
         35    2    1    2    0    0  0.00000000000E+00  0.00000000000E+00 -0.93833312762E+03  0.97798853595E+03  0.27566740477E+03 0.  0.
         25    1    3    3    0    0  0.25492746045E+02  0.58956334180E+02 -0.39205787401E+03  0.41501217574E+03  0.12000000000E+03 0.  0.
         25    1    3    3    0    0 -0.25492746045E+02 -0.58956334180E+02 -0.54627525361E+03  0.56297636021E+03  0.12000000000E+03 0.  0.
<mgrwt>
<rscale>  0 0.27566740E+03</rscale>
<asrwt>0</asrwt>
<pdfrwt beam="1">  1        2 0.14740938E+00 0.27566740E+03</pdfrwt>
<pdfrwt beam="2">  1       -2 0.30504155E-02 0.27566740E+03</pdfrwt>
<totfact> 0.11489579E+04</totfact>
</mgrwt>
</event>
<event>
 5    1  0.1139158E+001  0.2775473E+03  0.7818608E-02  0.1097036E+00
          2   -1    0    0  501    0  0.00000000000E+00  0.00000000000E+00  0.16507942000E+04  0.16507942000E+04  0.00000000000E+00 0.  1.
         -2   -1    0    0    0  501 -0.00000000000E+00 -0.00000000000E+00 -0.11665979898E+02  0.11665979898E+02  0.00000000000E+00 0.  1.
         35    2    1    2    0    0  0.00000000000E+00  0.00000000000E+00  0.16391282201E+04  0.16624601799E+04  0.27754734337E+03 0.  0.
         25    1    3    3    0    0 -0.22965950730E+01  0.81095442304E+01  0.12339930783E+04  0.12398427143E+04  0.12000000000E+03 0.  0.
         25    1    3    3    0    0  0.22965950730E+01 -0.81095442304E+01  0.40513514185E+03  0.42261746558E+03  0.12000000000E+03 0.  0.
<mgrwt>
<rscale>  0 0.27754734E+03</rscale>
<asrwt>0</asrwt>
<pdfrwt beam="1">  1        2 0.25396815E+00 0.27754734E+03</pdfrwt>
<pdfrwt beam="2">  1       -2 0.17947674E-02 0.27754734E+03</pdfrwt>
<totfact> 0.10285767E+04</totfact>
</mgrwt>
</event>
<event>
 5    1  0.1139158E+001  0.2747663E+03  0.7818608E-02  0.1098582E+00
          1   -1    0    0  501    0  0.00000000000E+00  0.00000000000E+00  0.67987653273E+03  0.67987653273E+03  0.00000000000E+00 0.  1.
         -1   -1    0    0    0  501 -0.00000000000E+00 -0.00000000000E+00 -0.27761104229E+02  0.27761104229E+02  0.00000000000E+00 0.  1.
         35    2    1    2    0    0  0.00000000000E+00  0.00000000000E+00  0.65211542850E+03  0.70763763696E+03  0.27476625184E+03 0.  0.
         25    1    3    3    0    0 -0.50497717479E+01  0.18635170456E+02  0.49099207309E+03  0.50581220390E+03  0.12000000000E+03 0.  0.
         25    1    3    3    0    0  0.50497717479E+01 -0.18635170456E+02  0.16112335541E+03  0.20182543307E+03  0.12000000000E+03 0.  0.
<mgrwt>
<rscale>  0 0.27476625E+03</rscale>
<asrwt>0</asrwt>
<pdfrwt beam="1">  1        1 0.10459638E+00 0.27476625E+03</pdfrwt>
<pdfrwt beam="2">  1       -1 0.42709396E-02 0.27476625E+03</pdfrwt>
<totfact> 0.65404891E+03</totfact>
</mgrwt>
</event>
<event>
 5    1  0.1139158E+001  0.2749257E+03  0.7818608E-02  0.1098493E+00
         -2   -1    0    0    0  501 -0.00000000000E+00  0.00000000000E+00  0.60168105656E+02  0.60168105656E+02  0.00000000000E+00 0.  1.
          2   -1    0    0  501    0  0.00000000000E+00 -0.00000000000E+00 -0.31405405113E+03  0.31405405113E+03  0.00000000000E+00 0.  1.
         35    2    1    2    0    0  0.00000000000E+00  0.00000000000E+00 -0.25388594547E+03  0.37422215678E+03  0.27492571600E+03 0.  0.
         25    1    3    3    0    0 -0.43645309442E+02 -0.49925073792E+02 -0.14045988440E+03  0.19628144373E+03  0.12000000000E+03 0.  0.
         25    1    3    3    0    0  0.43645309442E+02  0.49925073792E+02 -0.11342606107E+03  0.17794071305E+03  0.12000000000E+03 0.  0.
<mgrwt>
<rscale>  0 0.27492572E+03</rscale>
<asrwt>0</asrwt>
<pdfrwt beam="1">  1        2 0.48316008E-01 0.27492572E+03</pdfrwt>
<pdfrwt beam="2">  1       -2 0.92566316E-02 0.27492572E+03</pdfrwt>
<totfact> 0.77504010E+03</totfact>
</mgrwt>
</event>
<event>
 5    1  0.1139158E+001  0.2757203E+03  0.7818608E-02  0.1098050E+00
          2   -1    0    0  501    0  0.00000000000E+00  0.00000000000E+00  0.62234559747E+03  0.62234559747E+03  0.00000000000E+00 0. -1.
         -2   -1    0    0    0  501 -0.00000000000E+00 -0.00000000000E+00 -0.30538363669E+02  0.30538363669E+02  0.00000000000E+00 0. -1.
         35    2    1    2    0    0  0.00000000000E+00  0.00000000000E+00  0.59180723380E+03  0.65288396114E+03  0.27572026536E+03 0.  0.
         25    1    3    3    0    0  0.40190775435E+02  0.46393634883E+02  0.36444046283E+03  0.38856726410E+03  0.12000000000E+03 0.  0.
         25    1    3    3    0    0 -0.40190775435E+02 -0.46393634883E+02  0.22736677097E+03  0.26431669703E+03  0.12000000000E+03 0.  0.
<mgrwt>
<rscale>  0 0.27572027E+03</rscale>
<asrwt>0</asrwt>
<pdfrwt beam="1">  1        2 0.95745467E-01 0.27572027E+03</pdfrwt>
<pdfrwt beam="2">  1       -2 0.46982102E-02 0.27572027E+03</pdfrwt>
<totfact> 0.10358726E+04</totfact>
</mgrwt>
</event>
<event>
 5    1  0.1139158E+001  0.2745656E+03  0.7818608E-02  0.1098695E+00
         -2   -1    0    0    0  501 -0.00000000000E+00  0.00000000000E+00  0.60361079435E+01  0.60361079435E+01  0.00000000000E+00 0. -1.
          2   -1    0    0  501    0  0.00000000000E+00 -0.00000000000E+00 -0.31223050037E+04  0.31223050037E+04  0.00000000000E+00 0. -1.
         35    2    1    2    0    0  0.00000000000E+00  0.00000000000E+00 -0.31162688957E+04  0.31283411116E+04  0.27456562083E+03 0.  0.
         25    1    3    3    0    0  0.10346420512E+02 -0.26616581556E+02 -0.22447060024E+04  0.22480926422E+04  0.12000000000E+03 0.  0.
         25    1    3    3    0    0 -0.10346420512E+02  0.26616581556E+02 -0.87156289333E+03  0.88024846938E+03  0.12000000000E+03 0.  0.
<mgrwt>
<rscale>  0 0.27456562E+03</rscale>
<asrwt>0</asrwt>
<pdfrwt beam="1">  1        2 0.48035576E+00 0.27456562E+03</pdfrwt>
<pdfrwt beam="2">  1       -2 0.92862978E-03 0.27456562E+03</pdfrwt>
<totfact> 0.41778607E+03</totfact>
</mgrwt>
</event>
<event>
 5    1  0.1139158E+001  0.2759148E+03  0.7818608E-02  0.1097941E+00
          1   -1    0    0  501    0  0.00000000000E+00  0.00000000000E+00  0.78387632317E+02  0.78387632317E+02  0.00000000000E+00 0. -1.
         -1   -1    0    0    0  501 -0.00000000000E+00 -0.00000000000E+00 -0.24279659462E+03  0.24279659462E+03  0.00000000000E+00 0. -1.
         35    2    1    2    0    0  0.00000000000E+00  0.00000000000E+00 -0.16440896230E+03  0.32118422694E+03  0.27591484329E+03 0.  0.
         25    1    3    3    0    0 -0.26410262751E+02  0.62687773184E+02 -0.79603806343E+02  0.15926087049E+03  0.12000000000E+03 0.  0.
         25    1    3    3    0    0  0.26410262751E+02 -0.62687773184E+02 -0.84805155960E+02  0.16192335645E+03  0.12000000000E+03 0.  0.
<mgrwt>
<rscale>  0 0.27591484E+03</rscale>
<asrwt>0</asrwt>
<pdfrwt beam="1">  1        1 0.12059636E-01 0.27591484E+03</pdfrwt>
<pdfrwt beam="2">  1       -1 0.37353322E-01 0.27591484E+03</pdfrwt>
<totfact> 0.34599417E+03</totfact>
</mgrwt>
</event>
<event>
 5    1  0.1139158E+001  0.2763129E+03  0.7818608E-02  0.1097720E+00
         -1   -1    0    0    0  501 -0.00000000000E+00  0.00000000000E+00  0.12920310448E+03  0.12920310448E+03  0.00000000000E+00 0. -1.
          1   -1    0    0  501    0  0.00000000000E+00 -0.00000000000E+00 -0.14773022326E+03  0.14773022326E+03  0.00000000000E+00 0. -1.
         35    2    1    2    0    0  0.00000000000E+00  0.00000000000E+00 -0.18527118786E+02  0.27693332774E+03  0.27631289127E+03 0.  0.
         25    1    3    3    0    0 -0.20778339947E+02 -0.61194081030E+02  0.13386932071E+02  0.13695132316E+03  0.12000000000E+03 0.  0.
         25    1    3    3    0    0  0.20778339947E+02  0.61194081030E+02 -0.31914050857E+02  0.13998200458E+03  0.12000000000E+03 0.  0.
<mgrwt>
<rscale>  0 0.27631289E+03</rscale>
<asrwt>0</asrwt>
<pdfrwt beam="1">  1        1 0.22727727E-01 0.27631289E+03</pdfrwt>
<pdfrwt beam="2">  1       -1 0.19877401E-01 0.27631289E+03</pdfrwt>
<totfact> 0.43794367E+03</totfact>
</mgrwt>
</event>
<event>
 5    1  0.1139158E+001  0.2830916E+03  0.7818608E-02  0.1094012E+00
          2   -1    0    0  501    0  0.00000000000E+00  0.00000000000E+00  0.70820642058E+03  0.70820642058E+03  0.00000000000E+00 0. -1.
         -2   -1    0    0    0  501 -0.00000000000E+00 -0.00000000000E+00 -0.28290077954E+02  0.28290077954E+02  0.00000000000E+00 0. -1.
         35    2    1    2    0    0  0.00000000000E+00  0.00000000000E+00  0.67991634262E+03  0.73649649853E+03  0.28309160952E+03 0.  0.
         25    1    3    3    0    0  0.43966318525E+02 -0.32315157641E+02  0.20583195206E+03  0.24442606053E+03  0.12000000000E+03 0.  0.
         25    1    3    3    0    0 -0.43966318525E+02  0.32315157641E+02  0.47408439056E+03  0.49207043800E+03  0.12000000000E+03 0.  0.
<mgrwt>
<rscale>  0 0.28309161E+03</rscale>
<asrwt>0</asrwt>
<pdfrwt beam="1">  1        2 0.10895482E+00 0.28309161E+03</pdfrwt>
<pdfrwt beam="2">  1       -2 0.43523202E-02 0.28309161E+03</pdfrwt>
<totfact> 0.99743167E+03</totfact>
</mgrwt>
</event>
<event>
 5    1  0.1139158E+001  0.2757993E+03  0.7818608E-02  0.1098006E+00
          2   -1    0    0  501    0  0.00000000000E+00  0.00000000000E+00  0.61961932418E+03  0.61961932418E+03  0.00000000000E+00 0. -1.
         -2   -1    0    0    0  501 -0.00000000000E+00 -0.00000000000E+00 -0.30690306528E+02  0.30690306528E+02  0.00000000000E+00 0. -1.
         35    2    1    2    0    0  0.00000000000E+00  0.00000000000E+00  0.58892901765E+03  0.65030963070E+03  0.27579925301E+03 0.  0.
         25    1    3    3    0    0 -0.38890714233E+02 -0.44880183477E+02  0.21663248039E+03  0.25466909919E+03  0.12000000000E+03 0.  0.
         25    1    3    3    0    0  0.38890714233E+02  0.44880183477E+02  0.37229653726E+03  0.39564053152E+03  0.12000000000E+03 0.  0.
<mgrwt>
<rscale>  0 0.27579925E+03</rscale>
<asrwt>0</asrwt>
<pdfrwt beam="1">  1        2 0.95326041E-01 0.27579925E+03</pdfrwt>
<pdfrwt beam="2">  1       -2 0.47215861E-02 0.27579925E+03</pdfrwt>
<totfact> 0.10334252E+04</totfact>
</mgrwt>
</event>
<event>
 5    1  0.1139158E+001  0.2725729E+03  0.7818608E-02  0.1099816E+00
         -1   -1    0    0    0  501 -0.00000000000E+00  0.00000000000E+00  0.66230385975E+02  0.66230385975E+02  0.00000000000E+00 0.  1.
          1   -1    0    0  501    0  0.00000000000E+00 -0.00000000000E+00 -0.28044524114E+03  0.28044524114E+03  0.00000000000E+00 0.  1.
         35    2    1    2    0    0  0.00000000000E+00  0.00000000000E+00 -0.21421485517E+03  0.34667562712E+03  0.27257290082E+03 0.  0.
         25    1    3    3    0    0  0.33623731982E+02  0.54080648580E+02 -0.93249090983E+02  0.16477458807E+03  0.12000000000E+03 0.  0.
         25    1    3    3    0    0 -0.33623731982E+02 -0.54080648580E+02 -0.12096576419E+03  0.18190103905E+03  0.12000000000E+03 0.  0.
<mgrwt>
<rscale>  0 0.27257290E+03</rscale>
<asrwt>0</asrwt>
<pdfrwt beam="1">  1        1 0.43145423E-01 0.27257290E+03</pdfrwt>
<pdfrwt beam="2">  1       -1 0.10189290E-01 0.27257290E+03</pdfrwt>
<totfact> 0.56097609E+03</totfact>
</mgrwt>
</event>
<event>
 5    1  0.1139158E+001  0.2751231E+03  0.7818608E-02  0.1098383E+00
          1   -1    0    0  501    0  0.00000000000E+00  0.00000000000E+00  0.39479672860E+02  0.39479672860E+02  0.00000000000E+00 0. -1.
         -1   -1    0    0    0  501 -0.00000000000E+00 -0.00000000000E+00 -0.47931459242E+03  0.47931459242E+03  0.00000000000E+00 0. -1.
         35    2    1    2    0    0  0.00000000000E+00  0.00000000000E+00 -0.43983491956E+03  0.51879426528E+03  0.27512312375E+03 0.  0.
         25    1    3    3    0    0 -0.27104438572E+02 -0.53264615618E+02 -0.27808125192E+03  0.30870852359E+03  0.12000000000E+03 0.  0.
         25    1    3    3    0    0  0.27104438572E+02  0.53264615618E+02 -0.16175366765E+03  0.21008574170E+03  0.12000000000E+03 0.  0.
<mgrwt>
<rscale>  0 0.27512312E+03</rscale>
<asrwt>0</asrwt>
<pdfrwt beam="1">  1        1 0.60737957E-02 0.27512312E+03</pdfrwt>
<pdfrwt beam="2">  1       -1 0.73740708E-01 0.27512312E+03</pdfrwt>
<totfact> 0.24461666E+03</totfact>
</mgrwt>
</event>
<event>
 5    1  0.1139158E+001  0.2754912E+03  0.7818608E-02  0.1098177E+00
          1   -1    0    0  501    0  0.00000000000E+00  0.00000000000E+00  0.75923890704E+03  0.75923890704E+03  0.00000000000E+00 0.  1.
         -1   -1    0    0    0  501 -0.00000000000E+00 -0.00000000000E+00 -0.24990624471E+02  0.24990624471E+02  0.00000000000E+00 0.  1.
         35    2    1    2    0    0  0.00000000000E+00  0.00000000000E+00  0.73424828257E+03  0.78422953152E+03  0.27549122970E+03 0.  0.
         25    1    3    3    0    0 -0.23335598879E+02  0.61388471691E+02  0.32115612987E+03  0.34907643058E+03  0.12000000000E+03 0.  0.
         25    1    3    3    0    0  0.23335598879E+02 -0.61388471691E+02  0.41309215270E+03  0.43515310094E+03  0.12000000000E+03 0.  0.
<mgrwt>
<rscale>  0 0.27549123E+03</rscale>
<asrwt>0</asrwt>
<pdfrwt beam="1">  1        1 0.11680597E+00 0.27549123E+03</pdfrwt>
<pdfrwt beam="2">  1       -1 0.38447120E-02 0.27549123E+03</pdfrwt>
<totfact> 0.64997814E+03</totfact>
</mgrwt>
</event>
<event>
 5    1  0.1139158E+001  0.2846010E+03  0.7818608E-02  0.1093202E+00
         -1   -1    0    0    0  501 -0.00000000000E+00  0.00000000000E+00  0.26519581344E+03  0.26519581344E+03  0.00000000000E+00 0.  1.
          1   -1    0    0  501    0  0.00000000000E+00 -0.00000000000E+00 -0.76356521845E+02  0.76356521845E+02  0.00000000000E+00 0.  1.
         35    2    1    2    0    0  0.00000000000E+00  0.00000000000E+00  0.18883929160E+03  0.34155233529E+03  0.28460098329E+03 0.  0.
         25    1    3    3    0    0 -0.38897430951E+02 -0.57795121105E+02  0.13229719519E+03  0.19171811081E+03  0.12000000000E+03 0.  0.
         25    1    3    3    0    0  0.38897430951E+02  0.57795121105E+02  0.56542096405E+02  0.14983422447E+03  0.12000000000E+03 0.  0.
<mgrwt>
<rscale>  0 0.28460098E+03</rscale>
<asrwt>0</asrwt>
<pdfrwt beam="1">  1        1 0.11747157E-01 0.28460098E+03</pdfrwt>
<pdfrwt beam="2">  1       -1 0.40799355E-01 0.28460098E+03</pdfrwt>
<totfact> 0.30676708E+03</totfact>
</mgrwt>
</event>
<event>
 5    1  0.1139158E+001  0.2776515E+03  0.7818608E-02  0.1096979E+00
          2   -1    0    0  501    0  0.00000000000E+00  0.00000000000E+00  0.81389430221E+03  0.81389430221E+03  0.00000000000E+00 0.  1.
         -2   -1    0    0    0  501 -0.00000000000E+00 -0.00000000000E+00 -0.23679481080E+02  0.23679481080E+02  0.00000000000E+00 0.  1.
         35    2    1    2    0    0  0.00000000000E+00  0.00000000000E+00  0.79021482113E+03  0.83757378329E+03  0.27765154226E+03 0.  0.
         25    1    3    3    0    0  0.35655490968E+02 -0.28835417505E+02  0.23634519802E+03  0.26900157614E+03  0.12000000000E+03 0.  0.
         25    1    3    3    0    0 -0.35655490968E+02  0.28835417505E+02  0.55386962311E+03  0.56857220715E+03  0.12000000000E+03 0.  0.
<mgrwt>
<rscale>  0 0.27765154E+03</rscale>
<asrwt>0</asrwt>
<pdfrwt beam="1">  1        2 0.12521449E+00 0.27765154E+03</pdfrwt>
<pdfrwt beam="2">  1       -2 0.36429977E-02 0.27765154E+03</pdfrwt>
<totfact> 0.10949232E+04</totfact>
</mgrwt>
</event>
<event>
 5    1  0.1139158E+001  0.2749186E+03  0.7818608E-02  0.1098497E+00
          1   -1    0    0  501    0  0.00000000000E+00  0.00000000000E+00  0.39775258267E+03  0.39775258267E+03  0.00000000000E+00 0. -1.
         -1   -1    0    0    0  501 -0.00000000000E+00 -0.00000000000E+00 -0.47504565113E+02  0.47504565113E+02  0.00000000000E+00 0. -1.
         35    2    1    2    0    0  0.00000000000E+00  0.00000000000E+00  0.35024801756E+03  0.44525714778E+03  0.27491863133E+03 0.  0.
         25    1    3    3    0    0  0.32684712567E+02  0.46317717787E+02  0.11714694570E+03  0.17702267737E+03  0.12000000000E+03 0.  0.
         25    1    3    3    0    0 -0.32684712567E+02 -0.46317717787E+02  0.23310107186E+03  0.26823447041E+03  0.12000000000E+03 0.  0.
<mgrwt>
<rscale>  0 0.27491863E+03</rscale>
<asrwt>0</asrwt>
<pdfrwt beam="1">  1        1 0.61192703E-01 0.27491863E+03</pdfrwt>
<pdfrwt beam="2">  1       -1 0.73083949E-02 0.27491863E+03</pdfrwt>
<totfact> 0.60022027E+03</totfact>
</mgrwt>
</event>
<event>
 5    1  0.1139158E+001  0.2755811E+03  0.7818608E-02  0.1098127E+00
         -3   -1    0    0    0  501 -0.00000000000E+00  0.00000000000E+00  0.97324500361E+02  0.97324500361E+02  0.00000000000E+00 0. -1.
          3   -1    0    0  501    0  0.00000000000E+00 -0.00000000000E+00 -0.19508177661E+03  0.19508177661E+03  0.00000000000E+00 0. -1.
         35    2    1    2    0    0  0.00000000000E+00  0.00000000000E+00 -0.97757276252E+02  0.29240627697E+03  0.27558110558E+03 0.  0.
         25    1    3    3    0    0 -0.47193337591E+02 -0.46432623583E+02 -0.33759583882E+02  0.14114853577E+03  0.12000000000E+03 0.  0.
         25    1    3    3    0    0  0.47193337591E+02  0.46432623583E+02 -0.63997692370E+02  0.15125774120E+03  0.12000000000E+03 0.  0.
<mgrwt>
<rscale>  0 0.27558111E+03</rscale>
<asrwt>0</asrwt>
<pdfrwt beam="1">  1        3 0.30012581E-01 0.27558111E+03</pdfrwt>
<pdfrwt beam="2">  1       -3 0.14973000E-01 0.27558111E+03</pdfrwt>
<totfact> 0.10161910E+03</totfact>
</mgrwt>
</event>
<event>
 5    1  0.1139158E+001  0.2751819E+03  0.7818608E-02  0.1098350E+00
          2   -1    0    0  501    0  0.00000000000E+00  0.00000000000E+00  0.11331454267E+04  0.11331454267E+04  0.00000000000E+00 0. -1.
         -2   -1    0    0    0  501 -0.00000000000E+00 -0.00000000000E+00 -0.16706826005E+02  0.16706826005E+02  0.00000000000E+00 0. -1.
         35    2    1    2    0    0  0.00000000000E+00  0.00000000000E+00  0.11164386007E+04  0.11498522528E+04  0.27518185611E+03 0.  0.
         25    1    3    3    0    0 -0.45105677690E+02 -0.36564310929E+02  0.41591684598E+03  0.43675885081E+03  0.12000000000E+03 0.  0.
         25    1    3    3    0    0  0.45105677690E+02  0.36564310929E+02  0.70052175477E+03  0.71309340194E+03  0.12000000000E+03 0.  0.
<mgrwt>
<rscale>  0 0.27518186E+03</rscale>
<asrwt>0</asrwt>
<pdfrwt beam="1">  1        2 0.17433000E+00 0.27518186E+03</pdfrwt>
<pdfrwt beam="2">  1       -2 0.25702818E-02 0.27518186E+03</pdfrwt>
<totfact> 0.11629027E+04</totfact>
</mgrwt>
</event>
<event>
 5    1  0.1139158E+001  0.2733393E+03  0.7818608E-02  0.1099384E+00
          2   -1    0    0  501    0  0.00000000000E+00  0.00000000000E+00  0.32141912925E+03  0.32141912925E+03  0.00000000000E+00 0.  1.
         -2   -1    0    0    0  501 -0.00000000000E+00 -0.00000000000E+00 -0.58112887214E+02  0.58112887214E+02  0.00000000000E+00 0.  1.
         35    2    1    2    0    0  0.00000000000E+00  0.00000000000E+00  0.26330624204E+03  0.37953201647E+03  0.27333930275E+03 0.  0.
         25    1    3    3    0    0  0.11410001019E+02 -0.56998696470E+02  0.17329784380E+03  0.21865768266E+03  0.12000000000E+03 0.  0.
         25    1    3    3    0    0 -0.11410001019E+02  0.56998696470E+02  0.90008398237E+02  0.16087433380E+03  0.12000000000E+03 0.  0.
<mgrwt>
<rscale>  0 0.27333930E+03</rscale>
<asrwt>0</asrwt>
<pdfrwt beam="1">  1        2 0.49449096E-01 0.27333930E+03</pdfrwt>
<pdfrwt beam="2">  1       -2 0.89404444E-02 0.27333930E+03</pdfrwt>
<totfact> 0.79837045E+03</totfact>
</mgrwt>
</event>
<event>
 5    1  0.1139158E+001  0.2753464E+03  0.7818608E-02  0.1098258E+00
         -1   -1    0    0    0  501 -0.00000000000E+00  0.00000000000E+00  0.34331253775E+03  0.34331253775E+03  0.00000000000E+00 0. -1.
          1   -1    0    0  501    0  0.00000000000E+00 -0.00000000000E+00 -0.55208904350E+02  0.55208904350E+02  0.00000000000E+00 0. -1.
         35    2    1    2    0    0  0.00000000000E+00  0.00000000000E+00  0.28810363340E+03  0.39852144210E+03  0.27534639318E+03 0.  0.
         25    1    3    3    0    0  0.19886417130E+02 -0.48592260063E+02  0.20541026109E+03  0.24361866244E+03  0.12000000000E+03 0.  0.
         25    1    3    3    0    0 -0.19886417130E+02  0.48592260063E+02  0.82693372306E+02  0.15490277966E+03  0.12000000000E+03 0.  0.
<mgrwt>
<rscale>  0 0.27534639E+03</rscale>
<asrwt>0</asrwt>
<pdfrwt beam="1">  1        1 0.84936778E-02 0.27534639E+03</pdfrwt>
<pdfrwt beam="2">  1       -1 0.52817312E-01 0.27534639E+03</pdfrwt>
<totfact> 0.29598536E+03</totfact>
</mgrwt>
</event>
<event>
 5    1  0.1139158E+001  0.2751861E+03  0.7818608E-02  0.1098348E+00
          2   -1    0    0  501    0  0.00000000000E+00  0.00000000000E+00  0.33497335458E+03  0.33497335458E+03  0.00000000000E+00 0.  1.
         -2   -1    0    0    0  501 -0.00000000000E+00 -0.00000000000E+00 -0.56517487460E+02  0.56517487460E+02  0.00000000000E+00 0.  1.
         35    2    1    2    0    0  0.00000000000E+00  0.00000000000E+00  0.27845586712E+03  0.39149084204E+03  0.27518613604E+03 0.  0.
         25    1    3    3    0    0  0.38444801712E+02  0.10771618548E+02  0.21633741513E+03  0.25059111662E+03  0.12000000000E+03 0.  0.
         25    1    3    3    0    0 -0.38444801712E+02 -0.10771618548E+02  0.62118451987E+02  0.14089972542E+03  0.12000000000E+03 0.  0.
<mgrwt>
<rscale>  0 0.27518614E+03</rscale>
<asrwt>0</asrwt>
<pdfrwt beam="1">  1        2 0.51534361E-01 0.27518614E+03</pdfrwt>
<pdfrwt beam="2">  1       -2 0.86949983E-02 0.27518614E+03</pdfrwt>
<totfact> 0.79803377E+03</totfact>
</mgrwt>
</event>
<event>
 5    1  0.1139158E+001  0.2753196E+03  0.7818608E-02  0.1098273E+00
         -2   -1    0    0    0  501 -0.00000000000E+00  0.00000000000E+00  0.23459738340E+03  0.23459738340E+03  0.00000000000E+00 0.  1.
          2   -1    0    0  501    0  0.00000000000E+00 -0.00000000000E+00 -0.80777643203E+02  0.80777643203E+02  0.00000000000E+00 0.  1.
         35    2    1    2    0    0  0.00000000000E+00  0.00000000000E+00  0.15381974019E+03  0.31537502660E+03  0.27531962322E+03 0.  0.
         25    1    3    3    0    0 -0.44104701499E+02  0.15982916913E+01  0.13534592279E+03  0.18618887734E+03  0.12000000000E+03 0.  0.
         25    1    3    3    0    0  0.44104701499E+02 -0.15982916913E+01  0.18473817409E+02  0.12918614926E+03  0.12000000000E+03 0.  0.
<mgrwt>
<rscale>  0 0.27531962E+03</rscale>
<asrwt>0</asrwt>
<pdfrwt beam="1">  1        2 0.12427330E-01 0.27531962E+03</pdfrwt>
<pdfrwt beam="2">  1       -2 0.36091905E-01 0.27531962E+03</pdfrwt>
<totfact> 0.35313593E+03</totfact>
</mgrwt>
</event>
<event>
 5    1  0.1139158E+001  0.2754543E+03  0.7818608E-02  0.1098198E+00
          2   -1    0    0  501    0  0.00000000000E+00  0.00000000000E+00  0.30472405428E+03  0.30472405428E+03  0.00000000000E+00 0. -1.
         -2   -1    0    0    0  501 -0.00000000000E+00 -0.00000000000E+00 -0.62248993851E+02  0.62248993851E+02  0.00000000000E+00 0. -1.
         35    2    1    2    0    0  0.00000000000E+00  0.00000000000E+00  0.24247506043E+03  0.36697304813E+03  0.27545428500E+03 0.  0.
         25    1    3    3    0    0  0.29493170175E+02  0.31607098419E+02  0.52013117155E+02  0.13774694230E+03  0.12000000000E+03 0.  0.
         25    1    3    3    0    0 -0.29493170175E+02 -0.31607098419E+02  0.19046194327E+03  0.22922610583E+03  0.12000000000E+03 0.  0.
<mgrwt>
<rscale>  0 0.27545428E+03</rscale>
<asrwt>0</asrwt>
<pdfrwt beam="1">  1        2 0.46880623E-01 0.27545428E+03</pdfrwt>
<pdfrwt beam="2">  1       -2 0.95767685E-02 0.27545428E+03</pdfrwt>
<totfact> 0.75873146E+03</totfact>
</mgrwt>
</event>
<event>
 5    1  0.1139158E+001  0.2772983E+03  0.7818608E-02  0.1097174E+00
         -2   -1    0    0    0  501 -0.00000000000E+00  0.00000000000E+00  0.12761714288E+02  0.12761714288E+02  0.00000000000E+00 0.  1.
          2   -1    0    0  501    0  0.00000000000E+00 -0.00000000000E+00 -0.15063480618E+04  0.15063480618E+04  0.00000000000E+00 0.  1.
         35    2    1    2    0    0  0.00000000000E+00  0.00000000000E+00 -0.14935863475E+04  0.15191097760E+04  0.27729827683E+03 0.  0.
         25    1    3    3    0    0  0.55188744604E+02  0.68193359700E+01 -0.97473602873E+03  0.98366794528E+03  0.12000000000E+03 0.  0.
         25    1    3    3    0    0 -0.55188744604E+02 -0.68193359700E+01 -0.51885031874E+03  0.53544183076E+03  0.12000000000E+03 0.  0.
<mgrwt>
<rscale>  0 0.27729828E+03</rscale>
<asrwt>0</asrwt>
<pdfrwt beam="1">  1        2 0.23174590E+00 0.27729828E+03</pdfrwt>
<pdfrwt beam="2">  1       -2 0.19633403E-02 0.27729828E+03</pdfrwt>
<totfact> 0.10756698E+04</totfact>
</mgrwt>
</event>
<event>
 5    1  0.1139158E+001  0.2752389E+03  0.7818608E-02  0.1098318E+00
         -3   -1    0    0    0  501 -0.00000000000E+00  0.00000000000E+00  0.33811716762E+03  0.33811716762E+03  0.00000000000E+00 0.  1.
          3   -1    0    0  501    0  0.00000000000E+00 -0.00000000000E+00 -0.56013466239E+02  0.56013466239E+02  0.00000000000E+00 0.  1.
         35    2    1    2    0    0  0.00000000000E+00  0.00000000000E+00  0.28210370138E+03  0.39413063386E+03  0.27523891115E+03 0.  0.
         25    1    3    3    0    0  0.28823235747E+02 -0.57754478354E+02  0.11340519506E+03  0.17727689346E+03  0.12000000000E+03 0.  0.
         25    1    3    3    0    0 -0.28823235747E+02  0.57754478354E+02  0.16869850632E+03  0.21685374040E+03  0.12000000000E+03 0.  0.
<mgrwt>
<rscale>  0 0.27523891E+03</rscale>
<asrwt>0</asrwt>
<pdfrwt beam="1">  1        3 0.86174566E-02 0.27523891E+03</pdfrwt>
<pdfrwt beam="2">  1       -3 0.52018025E-01 0.27523891E+03</pdfrwt>
<totfact> 0.88523937E+02</totfact>
</mgrwt>
</event>
<event>
 5    1  0.1139158E+001  0.2747761E+03  0.7818608E-02  0.1098577E+00
          4   -1    0    0  501    0  0.00000000000E+00  0.00000000000E+00  0.12353858367E+04  0.12353858367E+04  0.00000000000E+00 0. -1.
         -4   -1    0    0    0  501 -0.00000000000E+00 -0.00000000000E+00 -0.15279012987E+02  0.15279012987E+02  0.00000000000E+00 0. -1.
         35    2    1    2    0    0  0.00000000000E+00  0.00000000000E+00  0.12201068237E+04  0.12506648497E+04  0.27477609971E+03 0.  0.
         25    1    3    3    0    0  0.21903539662E+02  0.26249759296E+02  0.34832139751E+03  0.36999542007E+03  0.12000000000E+03 0.  0.
         25    1    3    3    0    0 -0.21903539662E+02 -0.26249759296E+02  0.87178542624E+03  0.88066942965E+03  0.12000000000E+03 0.  0.
<mgrwt>
<rscale>  0 0.27477610E+03</rscale>
<asrwt>0</asrwt>
<pdfrwt beam="1">  1        4 0.19005928E+00 0.27477610E+03</pdfrwt>
<pdfrwt beam="2">  1       -4 0.23506184E-02 0.27477610E+03</pdfrwt>
<totfact> 0.24654008E+02</totfact>
</mgrwt>
</event>
<event>
 5    1  0.1139158E+001  0.2791474E+03  0.7818608E-02  0.1096156E+00
          2   -1    0    0  501    0  0.00000000000E+00  0.00000000000E+00  0.23276501514E+03  0.23276501514E+03  0.00000000000E+00 0.  1.
         -2   -1    0    0    0  501 -0.00000000000E+00 -0.00000000000E+00 -0.83693091312E+02  0.83693091312E+02  0.00000000000E+00 0.  1.
         35    2    1    2    0    0  0.00000000000E+00  0.00000000000E+00  0.14907192383E+03  0.31645810645E+03  0.27914744252E+03 0.  0.
         25    1    3    3    0    0 -0.21957339818E+02 -0.16215274158E+02 -0.11155713221E+00  0.12306531734E+03  0.12000000000E+03 0.  0.
         25    1    3    3    0    0  0.21957339818E+02  0.16215274158E+02  0.14918348096E+03  0.19339278911E+03  0.12000000000E+03 0.  0.
<mgrwt>
<rscale>  0 0.27914744E+03</rscale>
<asrwt>0</asrwt>
<pdfrwt beam="1">  1        2 0.35810002E-01 0.27914744E+03</pdfrwt>
<pdfrwt beam="2">  1       -2 0.12875860E-01 0.27914744E+03</pdfrwt>
<totfact> 0.63130821E+03</totfact>
</mgrwt>
</event>
<event>
 5    1  0.1139158E+001  0.2759709E+03  0.7818608E-02  0.1097910E+00
         -2   -1    0    0    0  501 -0.00000000000E+00  0.00000000000E+00  0.20758133657E+02  0.20758133657E+02  0.00000000000E+00 0.  1.
          2   -1    0    0  501    0  0.00000000000E+00 -0.00000000000E+00 -0.91722981878E+03  0.91722981878E+03  0.00000000000E+00 0.  1.
         35    2    1    2    0    0  0.00000000000E+00  0.00000000000E+00 -0.89647168513E+03  0.93798795244E+03  0.27597086203E+03 0.  0.
         25    1    3    3    0    0  0.47296168813E+02  0.11598665215E+02 -0.28635122603E+03  0.31427453169E+03  0.12000000000E+03 0.  0.
         25    1    3    3    0    0 -0.47296168813E+02 -0.11598665215E+02 -0.61012045910E+03  0.62371342076E+03  0.12000000000E+03 0.  0.
<mgrwt>
<rscale>  0 0.27597086E+03</rscale>
<asrwt>0</asrwt>
<pdfrwt beam="1">  1        2 0.14111223E+00 0.27597086E+03</pdfrwt>
<pdfrwt beam="2">  1       -2 0.31935601E-02 0.27597086E+03</pdfrwt>
<totfact> 0.11389933E+04</totfact>
</mgrwt>
</event>
<event>
 5    1  0.1139158E+001  0.2687158E+03  0.7818608E-02  0.1102017E+00
          2   -1    0    0  501    0  0.00000000000E+00  0.00000000000E+00  0.29048930825E+03  0.29048930825E+03  0.00000000000E+00 0.  1.
         -2   -1    0    0    0  501 -0.00000000000E+00 -0.00000000000E+00 -0.62143569454E+02  0.62143569454E+02  0.00000000000E+00 0.  1.
         35    2    1    2    0    0  0.00000000000E+00  0.00000000000E+00  0.22834573880E+03  0.35263287771E+03  0.26871577924E+03 0.  0.
         25    1    3    3    0    0 -0.11381706055E+02 -0.18496541515E+02  0.18817921324E+03  0.22423889399E+03  0.12000000000E+03 0.  0.
         25    1    3    3    0    0  0.11381706055E+02  0.18496541515E+02  0.40166525562E+02  0.12839398372E+03  0.12000000000E+03 0.  0.
<mgrwt>
<rscale>  0 0.26871578E+03</rscale>
<asrwt>0</asrwt>
<pdfrwt beam="1">  1        2 0.44690662E-01 0.26871578E+03</pdfrwt>
<pdfrwt beam="2">  1       -2 0.95605493E-02 0.26871578E+03</pdfrwt>
<totfact> 0.80014580E+03</totfact>
</mgrwt>
</event>
<event>
 5    1  0.1139158E+001  0.2746826E+03  0.7818608E-02  0.1098629E+00
          1   -1    0    0  501    0  0.00000000000E+00  0.00000000000E+00  0.18254616256E+04  0.18254616256E+04  0.00000000000E+00 0.  1.
         -1   -1    0    0    0  501 -0.00000000000E+00 -0.00000000000E+00 -0.10333075083E+02  0.10333075083E+02  0.00000000000E+00 0.  1.
         35    2    1    2    0    0  0.00000000000E+00  0.00000000000E+00  0.18151285505E+04  0.18357947007E+04  0.27468259528E+03 0.  0.
         25    1    3    3    0    0  0.40854223556E+02 -0.50283456167E+02  0.79873910374E+03  0.81029725990E+03  0.12000000000E+03 0.  0.
         25    1    3    3    0    0 -0.40854223556E+02  0.50283456167E+02  0.10163894468E+04  0.10254974408E+04  0.12000000000E+03 0.  0.
<mgrwt>
<rscale>  0 0.27468260E+03</rscale>
<asrwt>0</asrwt>
<pdfrwt beam="1">  1        1 0.28083999E+00 0.27468260E+03</pdfrwt>
<pdfrwt beam="2">  1       -1 0.15897053E-02 0.27468260E+03</pdfrwt>
<totfact> 0.42004834E+03</totfact>
</mgrwt>
</event>
<event>
 5    1  0.1139158E+001  0.2753234E+03  0.7818608E-02  0.1098271E+00
         -1   -1    0    0    0  501 -0.00000000000E+00  0.00000000000E+00  0.64398620682E+03  0.64398620682E+03  0.00000000000E+00 0. -1.
          1   -1    0    0  501    0  0.00000000000E+00 -0.00000000000E+00 -0.29427249791E+02  0.29427249791E+02  0.00000000000E+00 0. -1.
         35    2    1    2    0    0  0.00000000000E+00  0.00000000000E+00  0.61455895703E+03  0.67341345661E+03  0.27532339508E+03 0.  0.
         25    1    3    3    0    0 -0.34232375606E+02 -0.34402692529E+02  0.19267811501E+03  0.23212121143E+03  0.12000000000E+03 0.  0.
         25    1    3    3    0    0  0.34232375606E+02  0.34402692529E+02  0.42188084202E+03  0.44129224518E+03  0.12000000000E+03 0.  0.
<mgrwt>
<rscale>  0 0.27532340E+03</rscale>
<asrwt>0</asrwt>
<pdfrwt beam="1">  1        1 0.45272697E-02 0.27532340E+03</pdfrwt>
<pdfrwt beam="2">  1       -1 0.99074791E-01 0.27532340E+03</pdfrwt>
<totfact> 0.19655615E+03</totfact>
</mgrwt>
</event>
<event>
 5    1  0.1139158E+001  0.2749207E+03  0.7818608E-02  0.1098496E+00
          2   -1    0    0  501    0  0.00000000000E+00  0.00000000000E+00  0.13342035311E+04  0.13342035311E+04  0.00000000000E+00 0. -1.
         -2   -1    0    0    0  501 -0.00000000000E+00 -0.00000000000E+00 -0.14162271744E+02  0.14162271744E+02  0.00000000000E+00 0. -1.
         35    2    1    2    0    0  0.00000000000E+00  0.00000000000E+00  0.13200412594E+04  0.13483658029E+04  0.27492073745E+03 0.  0.
         25    1    3    3    0    0 -0.35706588977E+02  0.38230086231E+02  0.45432976747E+03  0.47281289915E+03  0.12000000000E+03 0.  0.
         25    1    3    3    0    0  0.35706588977E+02 -0.38230086231E+02  0.86571149193E+03  0.87555290375E+03  0.12000000000E+03 0.  0.
<mgrwt>
<rscale>  0 0.27492074E+03</rscale>
<asrwt>0</asrwt>
<pdfrwt beam="1">  1        2 0.20526198E+00 0.27492074E+03</pdfrwt>
<pdfrwt beam="2">  1       -2 0.21788121E-02 0.27492074E+03</pdfrwt>
<totfact> 0.11435260E+04</totfact>
</mgrwt>
</event>
<event>
 5    1  0.1139158E+001  0.2751972E+03  0.7818608E-02  0.1098341E+00
         -1   -1    0    0    0  501 -0.00000000000E+00  0.00000000000E+00  0.47434935421E+03  0.47434935421E+03  0.00000000000E+00 0.  1.
          1   -1    0    0  501    0  0.00000000000E+00 -0.00000000000E+00 -0.39914424535E+02  0.39914424535E+02  0.00000000000E+00 0.  1.
         35    2    1    2    0    0  0.00000000000E+00  0.00000000000E+00  0.43443492968E+03  0.51426377875E+03  0.27519724928E+03 0.  0.
         25    1    3    3    0    0 -0.47741824880E+02  0.37116969991E+02  0.16189512826E+03  0.21039720497E+03  0.12000000000E+03 0.  0.
         25    1    3    3    0    0  0.47741824880E+02 -0.37116969991E+02  0.27253980142E+03  0.30386657378E+03  0.12000000000E+03 0.  0.
<mgrwt>
<rscale>  0 0.27519725E+03</rscale>
<asrwt>0</asrwt>
<pdfrwt beam="1">  1        1 0.61406810E-02 0.27519725E+03</pdfrwt>
<pdfrwt beam="2">  1       -1 0.72976820E-01 0.27519725E+03</pdfrwt>
<totfact> 0.24609156E+03</totfact>
</mgrwt>
</event>
<event>
 5    1  0.1139158E+001  0.2745645E+03  0.7818608E-02  0.1098695E+00
         -1   -1    0    0    0  501 -0.00000000000E+00  0.00000000000E+00  0.26418778545E+02  0.26418778545E+02  0.00000000000E+00 0. -1.
          1   -1    0    0  501    0  0.00000000000E+00 -0.00000000000E+00 -0.71337201000E+03  0.71337201000E+03  0.00000000000E+00 0. -1.
         35    2    1    2    0    0  0.00000000000E+00  0.00000000000E+00 -0.68695323146E+03  0.73979078855E+03  0.27456450719E+03 0.  0.
         25    1    3    3    0    0 -0.40563033736E+02  0.52908038198E+02 -0.34708847973E+03  0.37324929066E+03  0.12000000000E+03 0.  0.
         25    1    3    3    0    0  0.40563033736E+02 -0.52908038198E+02 -0.33986475173E+03  0.36654149789E+03  0.12000000000E+03 0.  0.
<mgrwt>
<rscale>  0 0.27456451E+03</rscale>
<asrwt>0</asrwt>
<pdfrwt beam="1">  1        1 0.10974952E+00 0.27456451E+03</pdfrwt>
<pdfrwt beam="2">  1       -1 0.40644281E-02 0.27456451E+03</pdfrwt>
<totfact> 0.65647825E+03</totfact>
</mgrwt>
</event>
<event>
 5    1  0.1139158E+001  0.2749591E+03  0.7818608E-02  0.1098474E+00
          1   -1    0    0  501    0  0.00000000000E+00  0.00000000000E+00  0.96633020206E+02  0.96633020206E+02  0.00000000000E+00 0.  1.
         -1   -1    0    0    0  501 -0.00000000000E+00 -0.00000000000E+00 -0.19559179153E+03  0.19559179153E+03  0.00000000000E+00 0.  1.
         35    2    1    2    0    0  0.00000000000E+00  0.00000000000E+00 -0.98958771326E+02  0.29222481174E+03  0.27495909182E+03 0.  0.
         25    1    3    3    0    0  0.46856801010E+02 -0.11343220913E+02  0.10193268345E+00  0.12932222876E+03  0.12000000000E+03 0.  0.
         25    1    3    3    0    0 -0.46856801010E+02  0.11343220913E+02 -0.99060704010E+02  0.16290258298E+03  0.12000000000E+03 0.  0.
<mgrwt>
<rscale>  0 0.27495909E+03</rscale>
<asrwt>0</asrwt>
<pdfrwt beam="1">  1        1 0.14866619E-01 0.27495909E+03</pdfrwt>
<pdfrwt beam="2">  1       -1 0.30091044E-01 0.27495909E+03</pdfrwt>
<totfact> 0.38119234E+03</totfact>
</mgrwt>
</event>
<event>
 5    1  0.1139158E+001  0.2756909E+03  0.7818608E-02  0.1098066E+00
          2   -1    0    0  501    0  0.00000000000E+00  0.00000000000E+00  0.61499523016E+02  0.61499523016E+02  0.00000000000E+00 0. -1.
         -2   -1    0    0    0  501 -0.00000000000E+00 -0.00000000000E+00 -0.30896775443E+03  0.30896775443E+03  0.00000000000E+00 0. -1.
         35    2    1    2    0    0  0.00000000000E+00  0.00000000000E+00 -0.24746823142E+03  0.37046727745E+03  0.27569091044E+03 0.  0.
         25    1    3    3    0    0  0.20490597503E+02  0.17949670869E+02 -0.40254108495E+02  0.12946987496E+03  0.12000000000E+03 0.  0.
         25    1    3    3    0    0 -0.20490597503E+02 -0.17949670869E+02 -0.20721412292E+03  0.24099740249E+03  0.12000000000E+03 0.  0.
<mgrwt>
<rscale>  0 0.27569091E+03</rscale>
<asrwt>0</asrwt>
<pdfrwt beam="1">  1        2 0.94614650E-02 0.27569091E+03</pdfrwt>
<pdfrwt beam="2">  1       -2 0.47533501E-01 0.27569091E+03</pdfrwt>
<totfact> 0.29091116E+03</totfact>
</mgrwt>
</event>
<event>
 5    1  0.1139158E+001  0.2745586E+03  0.7818608E-02  0.1098699E+00
          2   -1    0    0  501    0  0.00000000000E+00  0.00000000000E+00  0.21017982116E+04  0.21017982116E+04  0.00000000000E+00 0. -1.
         -2   -1    0    0    0  501 -0.00000000000E+00 -0.00000000000E+00 -0.89664221192E+01  0.89664221192E+01  0.00000000000E+00 0. -1.
         35    2    1    2    0    0  0.00000000000E+00  0.00000000000E+00  0.20928317894E+04  0.21107646337E+04  0.27455862743E+03 0.  0.
         25    1    3    3    0    0 -0.25711856322E+02  0.91203040368E+01  0.15141334222E+04  0.15191261632E+04  0.12000000000E+03 0.  0.
         25    1    3    3    0    0  0.25711856322E+02 -0.91203040368E+01  0.57869836722E+03  0.59163847046E+03  0.12000000000E+03 0.  0.
<mgrwt>
<rscale>  0 0.27455863E+03</rscale>
<asrwt>0</asrwt>
<pdfrwt beam="1">  1        2 0.32335318E+00 0.27455863E+03</pdfrwt>
<pdfrwt beam="2">  1       -2 0.13794512E-02 0.27455863E+03</pdfrwt>
<totfact> 0.87557697E+03</totfact>
</mgrwt>
</event>
<event>
 5    1  0.1139158E+001  0.2753880E+03  0.7818608E-02  0.1098235E+00
         -2   -1    0    0    0  501 -0.00000000000E+00  0.00000000000E+00  0.44417075345E+02  0.44417075345E+02  0.00000000000E+00 0.  1.
          2   -1    0    0  501    0  0.00000000000E+00 -0.00000000000E+00 -0.42685474839E+03  0.42685474839E+03  0.00000000000E+00 0.  1.
         35    2    1    2    0    0  0.00000000000E+00  0.00000000000E+00 -0.38243767305E+03  0.47127182374E+03  0.27538801369E+03 0.  0.
         25    1    3    3    0    0  0.61435358593E+01 -0.35237967301E+02 -0.93207700767E+02  0.15609975290E+03  0.12000000000E+03 0.  0.
         25    1    3    3    0    0 -0.61435358593E+01  0.35237967301E+02 -0.28922997228E+03  0.31517207084E+03  0.12000000000E+03 0.  0.
<mgrwt>
<rscale>  0 0.27538801E+03</rscale>
<asrwt>0</asrwt>
<pdfrwt beam="1">  1        2 0.65669958E-01 0.27538801E+03</pdfrwt>
<pdfrwt beam="2">  1       -2 0.68333965E-02 0.27538801E+03</pdfrwt>
<totfact> 0.89331008E+03</totfact>
</mgrwt>
</event>
<event>
 5    1  0.1139158E+001  0.2736454E+03  0.7818608E-02  0.1099211E+00
          3   -1    0    0  501    0  0.00000000000E+00  0.00000000000E+00  0.35003555286E+03  0.35003555286E+03  0.00000000000E+00 0. -1.
         -3   -1    0    0    0  501 -0.00000000000E+00 -0.00000000000E+00 -0.53481573266E+02  0.53481573266E+02  0.00000000000E+00 0. -1.
         35    2    1    2    0    0  0.00000000000E+00  0.00000000000E+00  0.29655397960E+03  0.40351712613E+03  0.27364540607E+03 0.  0.
         25    1    3    3    0    0  0.37405810731E+02 -0.59992221145E+00  0.22797215357E+03  0.26032836454E+03  0.12000000000E+03 0.  0.
         25    1    3    3    0    0 -0.37405810731E+02  0.59992221145E+00  0.68581826029E+02  0.14318876159E+03  0.12000000000E+03 0.  0.
<mgrwt>
<rscale>  0 0.27364541E+03</rscale>
<asrwt>0</asrwt>
<pdfrwt beam="1">  1        3 0.53851622E-01 0.27364541E+03</pdfrwt>
<pdfrwt beam="2">  1       -3 0.82279346E-02 0.27364541E+03</pdfrwt>
<totfact> 0.89033167E+02</totfact>
</mgrwt>
</event>
<event>
 5    1  0.1139158E+001  0.2748079E+03  0.7818608E-02  0.1098559E+00
          1   -1    0    0  501    0  0.00000000000E+00  0.00000000000E+00  0.24803727892E+03  0.24803727892E+03  0.00000000000E+00 0. -1.
         -1   -1    0    0    0  501 -0.00000000000E+00 -0.00000000000E+00 -0.76116976699E+02  0.76116976699E+02  0.00000000000E+00 0. -1.
         35    2    1    2    0    0  0.00000000000E+00  0.00000000000E+00  0.17192030222E+03  0.32415425562E+03  0.27480791677E+03 0.  0.
         25    1    3    3    0    0  0.25280928242E+01  0.59693587090E+02  0.50374515742E+02  0.14320372701E+03  0.12000000000E+03 0.  0.
         25    1    3    3    0    0 -0.25280928242E+01 -0.59693587090E+02  0.12154578648E+03  0.18095052861E+03  0.12000000000E+03 0.  0.
<mgrwt>
<rscale>  0 0.27480792E+03</rscale>
<asrwt>0</asrwt>
<pdfrwt beam="1">  1        1 0.38159581E-01 0.27480792E+03</pdfrwt>
<pdfrwt beam="2">  1       -1 0.11710304E-01 0.27480792E+03</pdfrwt>
<totfact> 0.52738675E+03</totfact>
</mgrwt>
</event>
<event>
 5    1  0.1139158E+001  0.2753939E+03  0.7818608E-02  0.1098232E+00
         -2   -1    0    0    0  501 -0.00000000000E+00  0.00000000000E+00  0.22067506233E+02  0.22067506233E+02  0.00000000000E+00 0.  1.
          2   -1    0    0  501    0  0.00000000000E+00 -0.00000000000E+00 -0.85920207415E+03  0.85920207415E+03  0.00000000000E+00 0.  1.
         35    2    1    2    0    0  0.00000000000E+00  0.00000000000E+00 -0.83713456791E+03  0.88126958038E+03  0.27539387885E+03 0.  0.
         25    1    3    3    0    0  0.19374783019E+02 -0.32934801386E+02 -0.24038651747E+03  0.27137752512E+03  0.12000000000E+03 0.  0.
         25    1    3    3    0    0 -0.19374783019E+02  0.32934801386E+02 -0.59674805044E+03  0.60989205525E+03  0.12000000000E+03 0.  0.
<mgrwt>
<rscale>  0 0.27539388E+03</rscale>
<asrwt>0</asrwt>
<pdfrwt beam="1">  1        2 0.13218493E+00 0.27539388E+03</pdfrwt>
<pdfrwt beam="2">  1       -2 0.33950011E-02 0.27539388E+03</pdfrwt>
<totfact> 0.11339466E+04</totfact>
</mgrwt>
</event>
<event>
 5    1  0.1139158E+001  0.2753129E+03  0.7818608E-02  0.1098277E+00
         -2   -1    0    0    0  501 -0.00000000000E+00  0.00000000000E+00  0.14667965734E+03  0.14667965734E+03  0.00000000000E+00 0. -1.
          2   -1    0    0  501    0  0.00000000000E+00 -0.00000000000E+00 -0.12918831299E+03  0.12918831299E+03  0.00000000000E+00 0. -1.
         35    2    1    2    0    0  0.00000000000E+00  0.00000000000E+00  0.17491344350E+02  0.27586797033E+03  0.27531289459E+03 0.  0.
         25    1    3    3    0    0  0.53739942943E+02 -0.36288711863E+02  0.27342331066E+02  0.13911310199E+03  0.12000000000E+03 0.  0.
         25    1    3    3    0    0 -0.53739942943E+02  0.36288711863E+02 -0.98509867153E+01  0.13675486834E+03  0.12000000000E+03 0.  0.
<mgrwt>
<rscale>  0 0.27531289E+03</rscale>
<asrwt>0</asrwt>
<pdfrwt beam="1">  1        2 0.19875125E-01 0.27531289E+03</pdfrwt>
<pdfrwt beam="2">  1       -2 0.22566101E-01 0.27531289E+03</pdfrwt>
<totfact> 0.47342103E+03</totfact>
</mgrwt>
</event>
<event>
 5    1  0.1139158E+001  0.2742709E+03  0.7818608E-02  0.1098860E+00
          2   -1    0    0  501    0  0.00000000000E+00  0.00000000000E+00  0.64463045665E+03  0.64463045665E+03  0.00000000000E+00 0. -1.
         -2   -1    0    0    0  501 -0.00000000000E+00 -0.00000000000E+00 -0.29173503534E+02  0.29173503534E+02  0.00000000000E+00 0. -1.
         35    2    1    2    0    0  0.00000000000E+00  0.00000000000E+00  0.61545695312E+03  0.67380396019E+03  0.27427088001E+03 0.  0.
         25    1    3    3    0    0 -0.36840376565E+01 -0.64984053824E+02  0.33972513141E+03  0.36612793433E+03  0.12000000000E+03 0.  0.
         25    1    3    3    0    0  0.36840376565E+01  0.64984053824E+02  0.27573182171E+03  0.30767602586E+03  0.12000000000E+03 0.  0.
<mgrwt>
<rscale>  0 0.27427088E+03</rscale>
<asrwt>0</asrwt>
<pdfrwt beam="1">  1        2 0.99173906E-01 0.27427088E+03</pdfrwt>
<pdfrwt beam="2">  1       -2 0.44882318E-02 0.27427088E+03</pdfrwt>
<totfact> 0.10648173E+04</totfact>
</mgrwt>
</event>
<event>
 5    1  0.1139158E+001  0.2769712E+03  0.7818608E-02  0.1097355E+00
         -2   -1    0    0    0  501 -0.00000000000E+00  0.00000000000E+00  0.10919871747E+02  0.10919871747E+02  0.00000000000E+00 0.  1.
          2   -1    0    0  501    0  0.00000000000E+00 -0.00000000000E+00 -0.17562720299E+04  0.17562720299E+04  0.00000000000E+00 0.  1.
         35    2    1    2    0    0  0.00000000000E+00  0.00000000000E+00 -0.17453521582E+04  0.17671919017E+04  0.27697122825E+03 0.  0.
         25    1    3    3    0    0 -0.47881883660E+02 -0.45795807337E+02 -0.99840989061E+03  0.10077758880E+04  0.12000000000E+03 0.  0.
         25    1    3    3    0    0  0.47881883660E+02  0.45795807337E+02 -0.74694226757E+03  0.75941601369E+03  0.12000000000E+03 0.  0.
<mgrwt>
<rscale>  0 0.27697123E+03</rscale>
<asrwt>0</asrwt>
<pdfrwt beam="1">  1        2 0.27019545E+00 0.27697123E+03</pdfrwt>
<pdfrwt beam="2">  1       -2 0.16799818E-02 0.27697123E+03</pdfrwt>
<totfact> 0.99716715E+03</totfact>
</mgrwt>
</event>
<event>
 5    1  0.1139158E+001  0.2750996E+03  0.7818608E-02  0.1098396E+00
          1   -1    0    0  501    0  0.00000000000E+00  0.00000000000E+00  0.42120988577E+03  0.42120988577E+03  0.00000000000E+00 0. -1.
         -1   -1    0    0    0  501 -0.00000000000E+00 -0.00000000000E+00 -0.44918097295E+02  0.44918097295E+02  0.00000000000E+00 0. -1.
         35    2    1    2    0    0  0.00000000000E+00  0.00000000000E+00  0.37629178847E+03  0.46612798306E+03  0.27509959382E+03 0.  0.
         25    1    3    3    0    0 -0.38796266639E+02 -0.23263701804E+02  0.27241718690E+03  0.30109379576E+03  0.12000000000E+03 0.  0.
         25    1    3    3    0    0  0.38796266639E+02  0.23263701804E+02  0.10387460158E+03  0.16503418730E+03  0.12000000000E+03 0.  0.
<mgrwt>
<rscale>  0 0.27509959E+03</rscale>
<asrwt>0</asrwt>
<pdfrwt beam="1">  1        1 0.64801518E-01 0.27509959E+03</pdfrwt>
<pdfrwt beam="2">  1       -1 0.69104768E-02 0.27509959E+03</pdfrwt>
<totfact> 0.60707671E+03</totfact>
</mgrwt>
</event>
<event>
 5    1  0.1139158E+001  0.2757129E+03  0.7818608E-02  0.1098054E+00
         -2   -1    0    0    0  501 -0.00000000000E+00  0.00000000000E+00  0.73937049475E+02  0.73937049475E+02  0.00000000000E+00 0.  1.
          2   -1    0    0  501    0  0.00000000000E+00 -0.00000000000E+00 -0.25703493544E+03  0.25703493544E+03  0.00000000000E+00 0.  1.
         35    2    1    2    0    0  0.00000000000E+00  0.00000000000E+00 -0.18309788596E+03  0.33097198491E+03  0.27571292852E+03 0.  0.
         25    1    3    3    0    0 -0.58128155197E+02  0.50518657961E+01 -0.49965073340E+02  0.14248127010E+03  0.12000000000E+03 0.  0.
         25    1    3    3    0    0  0.58128155197E+02 -0.50518657961E+01 -0.13313281262E+03  0.18849071482E+03  0.12000000000E+03 0.  0.
<mgrwt>
<rscale>  0 0.27571293E+03</rscale>
<asrwt>0</asrwt>
<pdfrwt beam="1">  1        2 0.39543836E-01 0.27571293E+03</pdfrwt>
<pdfrwt beam="2">  1       -2 0.11374931E-01 0.27571293E+03</pdfrwt>
<totfact> 0.69252478E+03</totfact>
</mgrwt>
</event>
<event>
 5    1  0.1139158E+001  0.2750889E+03  0.7818608E-02  0.1098402E+00
         -1   -1    0    0    0  501 -0.00000000000E+00  0.00000000000E+00  0.65219398188E+02  0.65219398188E+02  0.00000000000E+00 0.  1.
          1   -1    0    0  501    0  0.00000000000E+00 -0.00000000000E+00 -0.29007435673E+03  0.29007435673E+03  0.00000000000E+00 0.  1.
         35    2    1    2    0    0  0.00000000000E+00  0.00000000000E+00 -0.22485495854E+03  0.35529375492E+03  0.27508889455E+03 0.  0.
         25    1    3    3    0    0  0.48445072471E+02  0.22686922690E+02 -0.59855229046E+02  0.14437544789E+03  0.12000000000E+03 0.  0.
         25    1    3    3    0    0 -0.48445072471E+02 -0.22686922690E+02 -0.16499972950E+03  0.21091830703E+03  0.12000000000E+03 0.  0.
<mgrwt>
<rscale>  0 0.27508889E+03</rscale>
<asrwt>0</asrwt>
<pdfrwt beam="1">  1        1 0.44626823E-01 0.27508889E+03</pdfrwt>
<pdfrwt beam="2">  1       -1 0.10033754E-01 0.27508889E+03</pdfrwt>
<totfact> 0.55080262E+03</totfact>
</mgrwt>
</event>
<event>
 5    1  0.1139158E+001  0.2756608E+03  0.7818608E-02  0.1098083E+00
          2   -1    0    0  501    0  0.00000000000E+00  0.00000000000E+00  0.13447039760E+04  0.13447039760E+04  0.00000000000E+00 0. -1.
         -2   -1    0    0    0  501 -0.00000000000E+00 -0.00000000000E+00 -0.14127438182E+02  0.14127438182E+02  0.00000000000E+00 0. -1.
         35    2    1    2    0    0  0.00000000000E+00  0.00000000000E+00  0.13305765378E+04  0.13588314142E+04  0.27566082271E+03 0.  0.
         25    1    3    3    0    0  0.61387318939E+02 -0.25228981974E+02  0.73364799488E+03  0.74635399433E+03  0.12000000000E+03 0.  0.
         25    1    3    3    0    0 -0.61387318939E+02  0.25228981974E+02  0.59692854294E+03  0.61247741986E+03  0.12000000000E+03 0.  0.
<mgrwt>
<rscale>  0 0.27566082E+03</rscale>
<asrwt>0</asrwt>
<pdfrwt beam="1">  1        2 0.20687743E+00 0.27566082E+03</pdfrwt>
<pdfrwt beam="2">  1       -2 0.21734531E-02 0.27566082E+03</pdfrwt>
<totfact> 0.11326206E+04</totfact>
</mgrwt>
</event>
<event>
 5    1  0.1139158E+001  0.2749273E+03  0.7818608E-02  0.1098492E+00
         -2   -1    0    0    0  501 -0.00000000000E+00  0.00000000000E+00  0.19583656304E+02  0.19583656304E+02  0.00000000000E+00 0.  1.
          2   -1    0    0  501    0  0.00000000000E+00 -0.00000000000E+00 -0.96489930164E+03  0.96489930164E+03  0.00000000000E+00 0.  1.
         35    2    1    2    0    0  0.00000000000E+00  0.00000000000E+00 -0.94531564534E+03  0.98448295795E+03  0.27492730887E+03 0.  0.
         25    1    3    3    0    0  0.56446232073E+01 -0.39668619542E+02 -0.28012757042E+03  0.30737097595E+03  0.12000000000E+03 0.  0.
         25    1    3    3    0    0 -0.56446232073E+01  0.39668619542E+02 -0.66518807492E+03  0.67711198200E+03  0.12000000000E+03 0.  0.
<mgrwt>
<rscale>  0 0.27492731E+03</rscale>
<asrwt>0</asrwt>
<pdfrwt beam="1">  1        2 0.14844603E+00 0.27492731E+03</pdfrwt>
<pdfrwt beam="2">  1       -2 0.30128705E-02 0.27492731E+03</pdfrwt>
<totfact> 0.11589583E+04</totfact>
</mgrwt>
</event>
<event>
 5    1  0.1139158E+001  0.2736164E+03  0.7818608E-02  0.1099228E+00
          1   -1    0    0  501    0  0.00000000000E+00  0.00000000000E+00  0.39470127623E+03  0.39470127623E+03  0.00000000000E+00 0.  1.
         -1   -1    0    0    0  501 -0.00000000000E+00 -0.00000000000E+00 -0.47419356315E+02  0.47419356315E+02  0.00000000000E+00 0.  1.
         35    2    1    2    0    0  0.00000000000E+00  0.00000000000E+00  0.34728191991E+03  0.44212063254E+03  0.27361637711E+03 0.  0.
         25    1    3    3    0    0 -0.14605634950E+02  0.37966088646E+02  0.25700540378E+03  0.28654236342E+03  0.12000000000E+03 0.  0.
         25    1    3    3    0    0  0.14605634950E+02 -0.37966088646E+02  0.90276516131E+02  0.15557826913E+03  0.12000000000E+03 0.  0.
<mgrwt>
<rscale>  0 0.27361638E+03</rscale>
<asrwt>0</asrwt>
<pdfrwt beam="1">  1        1 0.60723271E-01 0.27361638E+03</pdfrwt>
<pdfrwt beam="2">  1       -1 0.72952859E-02 0.27361638E+03</pdfrwt>
<totfact> 0.60773713E+03</totfact>
</mgrwt>
</event>
<event>
 5    1  0.1139158E+001  0.2684667E+03  0.7818608E-02  0.1102160E+00
          1   -1    0    0  501    0  0.00000000000E+00  0.00000000000E+00  0.13572157329E+03  0.13572157329E+03  0.00000000000E+00 0.  1.
         -1   -1    0    0    0  501 -0.00000000000E+00 -0.00000000000E+00 -0.13276140680E+03  0.13276140680E+03  0.00000000000E+00 0.  1.
         35    2    1    2    0    0  0.00000000000E+00  0.00000000000E+00  0.29601664947E+01  0.26848298009E+03  0.26846666089E+03 0.  0.
         25    1    3    3    0    0  0.25234432380E+02  0.39328097982E+02 -0.36405080214E+02  0.13382378613E+03  0.12000000000E+03 0.  0.
         25    1    3    3    0    0 -0.25234432380E+02 -0.39328097982E+02  0.39365246709E+02  0.13465919396E+03  0.12000000000E+03 0.  0.
<mgrwt>
<rscale>  0 0.26846666E+03</rscale>
<asrwt>0</asrwt>
<pdfrwt beam="1">  1        1 0.20880242E-01 0.26846666E+03</pdfrwt>
<pdfrwt beam="2">  1       -1 0.20424832E-01 0.26846666E+03</pdfrwt>
<totfact> 0.46669287E+03</totfact>
</mgrwt>
</event>
<event>
 5    1  0.1139158E+001  0.2749546E+03  0.7818608E-02  0.1098477E+00
          1   -1    0    0  501    0  0.00000000000E+00  0.00000000000E+00  0.34355227547E+03  0.34355227547E+03  0.00000000000E+00 0. -1.
         -1   -1    0    0    0  501 -0.00000000000E+00 -0.00000000000E+00 -0.55013498851E+02  0.55013498851E+02  0.00000000000E+00 0. -1.
         35    2    1    2    0    0  0.00000000000E+00  0.00000000000E+00  0.28853877662E+03  0.39856577432E+03  0.27495463416E+03 0.  0.
         25    1    3    3    0    0  0.33296174162E+02  0.56904080499E+02  0.16221732198E+03  0.21227616244E+03  0.12000000000E+03 0.  0.
         25    1    3    3    0    0 -0.33296174162E+02 -0.56904080499E+02  0.12632145464E+03  0.18628961188E+03  0.12000000000E+03 0.  0.
<mgrwt>
<rscale>  0 0.27495463E+03</rscale>
<asrwt>0</asrwt>
<pdfrwt beam="1">  1        1 0.52854195E-01 0.27495463E+03</pdfrwt>
<pdfrwt beam="2">  1       -1 0.84636154E-02 0.27495463E+03</pdfrwt>
<totfact> 0.57818270E+03</totfact>
</mgrwt>
</event>
<event>
 5    1  0.1139158E+001  0.2730529E+03  0.7818608E-02  0.1099545E+00
         -2   -1    0    0    0  501 -0.00000000000E+00  0.00000000000E+00  0.60151492924E+02  0.60151492924E+02  0.00000000000E+00 0.  1.
          2   -1    0    0  501    0  0.00000000000E+00 -0.00000000000E+00 -0.30987541871E+03  0.30987541871E+03  0.00000000000E+00 0.  1.
         35    2    1    2    0    0  0.00000000000E+00  0.00000000000E+00 -0.24972392579E+03  0.37002691164E+03  0.27305288174E+03 0.  0.
         25    1    3    3    0    0 -0.31270501686E+02 -0.54603070348E+02 -0.14754315939E+03  0.20032055174E+03  0.12000000000E+03 0.  0.
         25    1    3    3    0    0  0.31270501686E+02  0.54603070348E+02 -0.10218076640E+03  0.16970635989E+03  0.12000000000E+03 0.  0.
<mgrwt>
<rscale>  0 0.27305288E+03</rscale>
<asrwt>0</asrwt>
<pdfrwt beam="1">  1        2 0.47673142E-01 0.27305288E+03</pdfrwt>
<pdfrwt beam="2">  1       -2 0.92540757E-02 0.27305288E+03</pdfrwt>
<totfact> 0.78642267E+03</totfact>
</mgrwt>
</event>
<event>
 5    1  0.1139158E+001  0.2748215E+03  0.7818608E-02  0.1098551E+00
         -2   -1    0    0    0  501 -0.00000000000E+00  0.00000000000E+00  0.10164680922E+04  0.10164680922E+04  0.00000000000E+00 0.  1.
          2   -1    0    0  501    0  0.00000000000E+00 -0.00000000000E+00 -0.18575799607E+02  0.18575799607E+02  0.00000000000E+00 0.  1.
         35    2    1    2    0    0  0.00000000000E+00  0.00000000000E+00  0.99789229255E+03  0.10350438918E+04  0.27482145176E+03 0.  0.
         25    1    3    3    0    0 -0.18622044287E+02  0.43032207013E+02  0.31898616029E+03  0.34402139734E+03  0.12000000000E+03 0.  0.
         25    1    3    3    0    0  0.18622044287E+02 -0.43032207013E+02  0.67890613226E+03  0.69102249442E+03  0.12000000000E+03 0.  0.
<mgrwt>
<rscale>  0 0.27482145E+03</rscale>
<asrwt>0</asrwt>
<pdfrwt beam="1">  1        2 0.28578161E-02 0.27482145E+03</pdfrwt>
<pdfrwt beam="2">  1       -2 0.15637966E+00 0.27482145E+03</pdfrwt>
<totfact> 0.95264314E+02</totfact>
</mgrwt>
</event>
<event>
 5    1  0.1139158E+001  0.2747171E+03  0.7818608E-02  0.1098610E+00
          1   -1    0    0  501    0  0.00000000000E+00  0.00000000000E+00  0.29149313955E+03  0.29149313955E+03  0.00000000000E+00 0. -1.
         -1   -1    0    0    0  501 -0.00000000000E+00 -0.00000000000E+00 -0.64726625840E+02  0.64726625840E+02  0.00000000000E+00 0. -1.
         35    2    1    2    0    0  0.00000000000E+00  0.00000000000E+00  0.22676651371E+03  0.35621976539E+03  0.27471707176E+03 0.  0.
         25    1    3    3    0    0  0.53296165102E+02  0.36181827420E+02  0.90268835673E+02  0.16339543612E+03  0.12000000000E+03 0.  0.
         25    1    3    3    0    0 -0.53296165102E+02 -0.36181827420E+02  0.13649767803E+03  0.19282432927E+03  0.12000000000E+03 0.  0.
<mgrwt>
<rscale>  0 0.27471707E+03</rscale>
<asrwt>0</asrwt>
<pdfrwt beam="1">  1        1 0.44845098E-01 0.27471707E+03</pdfrwt>
<pdfrwt beam="2">  1       -1 0.99579426E-02 0.27471707E+03</pdfrwt>
<totfact> 0.55386594E+03</totfact>
</mgrwt>
</event>
<event>
 5    1  0.1139158E+001  0.2751020E+03  0.7818608E-02  0.1098395E+00
         -2   -1    0    0    0  501 -0.00000000000E+00  0.00000000000E+00  0.27053986443E+02  0.27053986443E+02  0.00000000000E+00 0.  1.
          2   -1    0    0  501    0  0.00000000000E+00 -0.00000000000E+00 -0.69935259211E+03  0.69935259211E+03  0.00000000000E+00 0.  1.
         35    2    1    2    0    0  0.00000000000E+00  0.00000000000E+00 -0.67229860567E+03  0.72640657856E+03  0.27510198506E+03 0.  0.
         25    1    3    3    0    0 -0.27802497093E+02  0.43649340403E+02 -0.22282198657E+03  0.25831740448E+03  0.12000000000E+03 0.  0.
         25    1    3    3    0    0  0.27802497093E+02 -0.43649340403E+02 -0.44947661911E+03  0.46808917407E+03  0.12000000000E+03 0.  0.
<mgrwt>
<rscale>  0 0.27510199E+03</rscale>
<asrwt>0</asrwt>
<pdfrwt beam="1">  1        2 0.10759272E+00 0.27510199E+03</pdfrwt>
<pdfrwt beam="2">  1       -2 0.41621511E-02 0.27510199E+03</pdfrwt>
<totfact> 0.10823575E+04</totfact>
</mgrwt>
</event>
<event>
 5    1  0.1139158E+001  0.2744342E+03  0.7818608E-02  0.1098768E+00
          2   -1    0    0  501    0  0.00000000000E+00  0.00000000000E+00  0.15339764554E+03  0.15339764554E+03  0.00000000000E+00 0. -1.
         -2   -1    0    0    0  501 -0.00000000000E+00 -0.00000000000E+00 -0.12274326342E+03  0.12274326342E+03  0.00000000000E+00 0. -1.
         35    2    1    2    0    0  0.00000000000E+00  0.00000000000E+00  0.30654382119E+02  0.27614090897E+03  0.27443416417E+03 0.  0.
         25    1    3    3    0    0 -0.22729928190E+02 -0.16514314706E+02  0.76027775786E+02  0.14480882196E+03  0.12000000000E+03 0.  0.
         25    1    3    3    0    0  0.22729928190E+02  0.16514314706E+02 -0.45373393667E+02  0.13133208701E+03  0.12000000000E+03 0.  0.
<mgrwt>
<rscale>  0 0.27443416E+03</rscale>
<asrwt>0</asrwt>
<pdfrwt beam="1">  1        2 0.23599638E-01 0.27443416E+03</pdfrwt>
<pdfrwt beam="2">  1       -2 0.18883579E-01 0.27443416E+03</pdfrwt>
<totfact> 0.52901333E+03</totfact>
</mgrwt>
</event>
<event>
 5    1  0.1139158E+001  0.2750784E+03  0.7818608E-02  0.1098408E+00
          2   -1    0    0  501    0  0.00000000000E+00  0.00000000000E+00  0.31324661106E+03  0.31324661106E+03  0.00000000000E+00 0.  1.
         -2   -1    0    0    0  501 -0.00000000000E+00 -0.00000000000E+00 -0.60390204019E+02  0.60390204019E+02  0.00000000000E+00 0.  1.
         35    2    1    2    0    0  0.00000000000E+00  0.00000000000E+00  0.25285640704E+03  0.37363681508E+03  0.27507836520E+03 0.  0.
         25    1    3    3    0    0  0.21856820498E+02 -0.57127220356E+02  0.16426065045E+03  0.21242128235E+03  0.12000000000E+03 0.  0.
         25    1    3    3    0    0 -0.21856820498E+02  0.57127220356E+02  0.88595756595E+02  0.16121553273E+03  0.12000000000E+03 0.  0.
<mgrwt>
<rscale>  0 0.27507837E+03</rscale>
<asrwt>0</asrwt>
<pdfrwt beam="1">  1        2 0.48191785E-01 0.27507837E+03</pdfrwt>
<pdfrwt beam="2">  1       -2 0.92908008E-02 0.27507837E+03</pdfrwt>
<totfact> 0.77269510E+03</totfact>
</mgrwt>
</event>
<event>
 5    1  0.1139158E+001  0.2757089E+03  0.7818608E-02  0.1098056E+00
         -2   -1    0    0    0  501 -0.00000000000E+00  0.00000000000E+00  0.10728696789E+03  0.10728696789E+03  0.00000000000E+00 0.  1.
          2   -1    0    0  501    0  0.00000000000E+00 -0.00000000000E+00 -0.17713097903E+03  0.17713097903E+03  0.00000000000E+00 0.  1.
         35    2    1    2    0    0  0.00000000000E+00  0.00000000000E+00 -0.69844011149E+02  0.28441794692E+03  0.27570887297E+03 0.  0.
         25    1    3    3    0    0  0.45567968246E+02 -0.20158378709E+02  0.12587582702E+02  0.13054212807E+03  0.12000000000E+03 0.  0.
         25    1    3    3    0    0 -0.45567968246E+02  0.20158378709E+02 -0.82431593851E+02  0.15387581885E+03  0.12000000000E+03 0.  0.
<mgrwt>
<rscale>  0 0.27570887E+03</rscale>
<asrwt>0</asrwt>
<pdfrwt beam="1">  1        2 0.27250920E-01 0.27570887E+03</pdfrwt>
<pdfrwt beam="2">  1       -2 0.16505688E-01 0.27570887E+03</pdfrwt>
<totfact> 0.56520643E+03</totfact>
</mgrwt>
</event>
<event>
 5    1  0.1139158E+001  0.2731248E+03  0.7818608E-02  0.1099504E+00
          2   -1    0    0  501    0  0.00000000000E+00  0.00000000000E+00  0.26120331895E+04  0.26120331895E+04  0.00000000000E+00 0. -1.
         -2   -1    0    0    0  501 -0.00000000000E+00 -0.00000000000E+00 -0.71397591779E+01  0.71397591779E+01  0.00000000000E+00 0. -1.
         35    2    1    2    0    0  0.00000000000E+00  0.00000000000E+00  0.26048934303E+04  0.26191729487E+04  0.27312479154E+03 0.  0.
         25    1    3    3    0    0  0.19764887717E+00  0.34551000107E+02  0.77236529505E+03  0.78239501511E+03  0.12000000000E+03 0.  0.
         25    1    3    3    0    0 -0.19764887717E+00 -0.34551000107E+02  0.18325281353E+04  0.18367779336E+04  0.12000000000E+03 0.  0.
<mgrwt>
<rscale>  0 0.27312479E+03</rscale>
<asrwt>0</asrwt>
<pdfrwt beam="1">  1        2 0.40185050E+00 0.27312479E+03</pdfrwt>
<pdfrwt beam="2">  1       -2 0.10984266E-02 0.27312479E+03</pdfrwt>
<totfact> 0.64689303E+03</totfact>
</mgrwt>
</event>
<event>
 5    1  0.1139158E+001  0.2744884E+03  0.7818608E-02  0.1098738E+00
          2   -1    0    0  501    0  0.00000000000E+00  0.00000000000E+00  0.81900598021E+03  0.81900598021E+03  0.00000000000E+00 0.  1.
         -2   -1    0    0    0  501 -0.00000000000E+00 -0.00000000000E+00 -0.22998577175E+02  0.22998577175E+02  0.00000000000E+00 0.  1.
         35    2    1    2    0    0  0.00000000000E+00  0.00000000000E+00  0.79600740304E+03  0.84200455739E+03  0.27448841318E+03 0.  0.
         25    1    3    3    0    0  0.47068462920E+02  0.39714627375E+01  0.25396770577E+03  0.28483470346E+03  0.12000000000E+03 0.  0.
         25    1    3    3    0    0 -0.47068462920E+02 -0.39714627375E+01  0.54203969726E+03  0.55716985393E+03  0.12000000000E+03 0.  0.
<mgrwt>
<rscale>  0 0.27448841E+03</rscale>
<asrwt>0</asrwt>
<pdfrwt beam="1">  1        2 0.12600090E+00 0.27448841E+03</pdfrwt>
<pdfrwt beam="2">  1       -2 0.35382433E-02 0.27448841E+03</pdfrwt>
<totfact> 0.11342340E+04</totfact>
</mgrwt>
</event>
<event>
 5    1  0.1139158E+001  0.2751824E+03  0.7818608E-02  0.1098350E+00
          1   -1    0    0  501    0  0.00000000000E+00  0.00000000000E+00  0.57489686885E+03  0.57489686885E+03  0.00000000000E+00 0.  1.
         -1   -1    0    0    0  501 -0.00000000000E+00 -0.00000000000E+00 -0.32929976368E+02  0.32929976368E+02  0.00000000000E+00 0.  1.
         35    2    1    2    0    0  0.00000000000E+00  0.00000000000E+00  0.54196689248E+03  0.60782684522E+03  0.27518241445E+03 0.  0.
         25    1    3    3    0    0  0.28957117140E+02  0.44701156124E+02  0.36191130037E+03  0.38498895741E+03  0.12000000000E+03 0.  0.
         25    1    3    3    0    0 -0.28957117140E+02 -0.44701156124E+02  0.18005559211E+03  0.22283788781E+03  0.12000000000E+03 0.  0.
<mgrwt>
<rscale>  0 0.27518241E+03</rscale>
<asrwt>0</asrwt>
<pdfrwt beam="1">  1        1 0.88445665E-01 0.27518241E+03</pdfrwt>
<pdfrwt beam="2">  1       -1 0.50661506E-02 0.27518241E+03</pdfrwt>
<totfact> 0.64160753E+03</totfact>
</mgrwt>
</event>
<event>
 5    1  0.1139158E+001  0.2750143E+03  0.7818608E-02  0.1098444E+00
          1   -1    0    0  501    0  0.00000000000E+00  0.00000000000E+00  0.65476639060E+03  0.65476639060E+03  0.00000000000E+00 0. -1.
         -1   -1    0    0    0  501 -0.00000000000E+00 -0.00000000000E+00 -0.28877807955E+02  0.28877807955E+02  0.00000000000E+00 0. -1.
         35    2    1    2    0    0  0.00000000000E+00  0.00000000000E+00  0.62588858264E+03  0.68364419855E+03  0.27501431296E+03 0.  0.
         25    1    3    3    0    0  0.51184119634E+02 -0.33074055181E+02  0.24287547950E+03  0.27767283946E+03  0.12000000000E+03 0.  0.
         25    1    3    3    0    0 -0.51184119634E+02  0.33074055181E+02  0.38301310314E+03  0.40597135909E+03  0.12000000000E+03 0.  0.
<mgrwt>
<rscale>  0 0.27501431E+03</rscale>
<asrwt>0</asrwt>
<pdfrwt beam="1">  1        1 0.10073328E+00 0.27501431E+03</pdfrwt>
<pdfrwt beam="2">  1       -1 0.44427402E-02 0.27501431E+03</pdfrwt>
<totfact> 0.65094500E+03</totfact>
</mgrwt>
</event>
<event>
 5    1  0.1139158E+001  0.2756812E+03  0.7818608E-02  0.1098071E+00
          2   -1    0    0  501    0  0.00000000000E+00  0.00000000000E+00  0.43580891893E+02  0.43580891893E+02  0.00000000000E+00 0. -1.
         -2   -1    0    0    0  501 -0.00000000000E+00 -0.00000000000E+00 -0.43597164674E+03  0.43597164674E+03  0.00000000000E+00 0. -1.
         35    2    1    2    0    0  0.00000000000E+00  0.00000000000E+00 -0.39239075484E+03  0.47955253863E+03  0.27568121593E+03 0.  0.
         25    1    3    3    0    0 -0.43819897703E+02  0.11252556756E+02 -0.10829839499E+03  0.16785513345E+03  0.12000000000E+03 0.  0.
         25    1    3    3    0    0  0.43819897703E+02 -0.11252556756E+02 -0.28409235985E+03  0.31169740518E+03  0.12000000000E+03 0.  0.
<mgrwt>
<rscale>  0 0.27568122E+03</rscale>
<asrwt>0</asrwt>
<pdfrwt beam="1">  1        2 0.67047528E-02 0.27568122E+03</pdfrwt>
<pdfrwt beam="2">  1       -2 0.67072560E-01 0.27568122E+03</pdfrwt>
<totfact> 0.22281317E+03</totfact>
</mgrwt>
</event>
<event>
 5    1  0.1139158E+001  0.2766738E+03  0.7818608E-02  0.1097520E+00
          1   -1    0    0  501    0  0.00000000000E+00  0.00000000000E+00  0.61530710334E+02  0.61530710334E+02  0.00000000000E+00 0.  1.
         -1   -1    0    0    0  501 -0.00000000000E+00 -0.00000000000E+00 -0.31101708436E+03  0.31101708436E+03  0.00000000000E+00 0.  1.
         35    2    1    2    0    0  0.00000000000E+00  0.00000000000E+00 -0.24948637403E+03  0.37254779470E+03  0.27667383054E+03 0.  0.
         25    1    3    3    0    0  0.64624229491E+02  0.49060370620E+01 -0.93547348791E+02  0.16538278841E+03  0.12000000000E+03 0.  0.
         25    1    3    3    0    0 -0.64624229491E+02 -0.49060370620E+01 -0.15593902524E+03  0.20716500628E+03  0.12000000000E+03 0.  0.
<mgrwt>
<rscale>  0 0.27667383E+03</rscale>
<asrwt>0</asrwt>
<pdfrwt beam="1">  1        1 0.94662632E-02 0.27667383E+03</pdfrwt>
<pdfrwt beam="2">  1       -1 0.47848782E-01 0.27667383E+03</pdfrwt>
<totfact> 0.30697066E+03</totfact>
</mgrwt>
</event>
<event>
 4    1  0.1139158E+001  0.2913571E+03  0.7818608E-02  0.1089643E+00
         -2   -1    0    0    0  501 -0.00000000000E+00  0.00000000000E+00  0.28409258146E+02  0.28409258146E+02  0.00000000000E+00 0.  1.
          2   -1    0    0  501    0  0.00000000000E+00 -0.00000000000E+00 -0.74701868438E+03  0.74701868438E+03  0.00000000000E+00 0.  1.
         25    1    1    2    0    0 -0.47898854033E+02 -0.20828115624E+02 -0.52959775618E+03  0.54552900378E+03  0.12000000000E+03 0.  0.
         25    1    1    2    0    0  0.47898854033E+02  0.20828115624E+02 -0.18901167005E+03  0.22989893874E+03  0.12000000000E+03 0.  0.
<mgrwt>
<rscale>  0 0.29135715E+03</rscale>
<asrwt>0</asrwt>
<pdfrwt beam="1">  1        2 0.11492595E+00 0.29135715E+03</pdfrwt>
<pdfrwt beam="2">  1       -2 0.43706553E-02 0.29135715E+03</pdfrwt>
<totfact> 0.92893163E+03</totfact>
</mgrwt>
</event>
<event>
 5    1  0.1139158E+001  0.2752669E+03  0.7818608E-02  0.1098302E+00
          2   -1    0    0  501    0  0.00000000000E+00  0.00000000000E+00  0.53149527739E+03  0.53149527739E+03  0.00000000000E+00 0. -1.
         -2   -1    0    0    0  501 -0.00000000000E+00 -0.00000000000E+00 -0.35640901005E+02  0.35640901005E+02  0.00000000000E+00 0. -1.
         35    2    1    2    0    0  0.00000000000E+00  0.00000000000E+00  0.49585437638E+03  0.56713617839E+03  0.27526692911E+03 0.  0.
         25    1    3    3    0    0 -0.24832810568E+02  0.62510777719E+02  0.25683783682E+03  0.29135878266E+03  0.12000000000E+03 0.  0.
         25    1    3    3    0    0  0.24832810568E+02 -0.62510777719E+02  0.23901653957E+03  0.27577739574E+03  0.12000000000E+03 0.  0.
<mgrwt>
<rscale>  0 0.27526693E+03</rscale>
<asrwt>0</asrwt>
<pdfrwt beam="1">  1        2 0.81768499E-01 0.27526693E+03</pdfrwt>
<pdfrwt beam="2">  1       -2 0.54832159E-02 0.27526693E+03</pdfrwt>
<totfact> 0.98191303E+03</totfact>
</mgrwt>
</event>
<event>
 5    1  0.1139158E+001  0.2749960E+03  0.7818608E-02  0.1098454E+00
         -2   -1    0    0    0  501 -0.00000000000E+00  0.00000000000E+00  0.99619733067E+01  0.99619733067E+01  0.00000000000E+00 0.  1.
          2   -1    0    0  501    0  0.00000000000E+00 -0.00000000000E+00 -0.18977864859E+04  0.18977864859E+04  0.00000000000E+00 0.  1.
         35    2    1    2    0    0  0.00000000000E+00  0.00000000000E+00 -0.18878245126E+04  0.19077484592E+04  0.27499598771E+03 0.  0.
         25    1    3    3    0    0  0.56779183741E+02 -0.29375165590E+02 -0.10859034696E+04  0.10943825298E+04  0.12000000000E+03 0.  0.
         25    1    3    3    0    0 -0.56779183741E+02  0.29375165590E+02 -0.80192104297E+03  0.81336592947E+03  0.12000000000E+03 0.  0.
<mgrwt>
<rscale>  0 0.27499599E+03</rscale>
<asrwt>0</asrwt>
<pdfrwt beam="1">  1        2 0.29196695E+00 0.27499599E+03</pdfrwt>
<pdfrwt beam="2">  1       -2 0.15326123E-02 0.27499599E+03</pdfrwt>
<totfact> 0.96122489E+03</totfact>
</mgrwt>
</event>
<event>
 5    1  0.1139158E+001  0.2746040E+03  0.7818608E-02  0.1098673E+00
          2   -1    0    0  501    0  0.00000000000E+00  0.00000000000E+00  0.72623873506E+02  0.72623873506E+02  0.00000000000E+00 0.  1.
         -2   -1    0    0    0  501 -0.00000000000E+00 -0.00000000000E+00 -0.25958186291E+03  0.25958186291E+03  0.00000000000E+00 0.  1.
         35    2    1    2    0    0  0.00000000000E+00  0.00000000000E+00 -0.18695798941E+03  0.33220573642E+03  0.27460400854E+03 0.  0.
         25    1    3    3    0    0  0.20443655866E+02 -0.34642176612E+02 -0.15787903642E+03  0.20234577734E+03  0.12000000000E+03 0.  0.
         25    1    3    3    0    0 -0.20443655866E+02  0.34642176612E+02 -0.29078952987E+02  0.12985995908E+03  0.12000000000E+03 0.  0.
<mgrwt>
<rscale>  0 0.27460401E+03</rscale>
<asrwt>0</asrwt>
<pdfrwt beam="1">  1        2 0.11172904E-01 0.27460401E+03</pdfrwt>
<pdfrwt beam="2">  1       -2 0.39935672E-01 0.27460401E+03</pdfrwt>
<totfact> 0.33199986E+03</totfact>
</mgrwt>
</event>
<event>
 5    1  0.1139158E+001  0.2751614E+03  0.7818608E-02  0.1098361E+00
         -1   -1    0    0    0  501 -0.00000000000E+00  0.00000000000E+00  0.37324052337E+02  0.37324052337E+02  0.00000000000E+00 0.  1.
          1   -1    0    0  501    0  0.00000000000E+00 -0.00000000000E+00 -0.50713812043E+03  0.50713812043E+03  0.00000000000E+00 0.  1.
         35    2    1    2    0    0  0.00000000000E+00  0.00000000000E+00 -0.46981406809E+03  0.54446217276E+03  0.27516140535E+03 0.  0.
         25    1    3    3    0    0 -0.51591674828E+02 -0.40967791253E+02 -0.26206566465E+03  0.29566615197E+03  0.12000000000E+03 0.  0.
         25    1    3    3    0    0  0.51591674828E+02  0.40967791253E+02 -0.20774840344E+03  0.24879602079E+03  0.12000000000E+03 0.  0.
<mgrwt>
<rscale>  0 0.27516141E+03</rscale>
<asrwt>0</asrwt>
<pdfrwt beam="1">  1        1 0.78021244E-01 0.27516141E+03</pdfrwt>
<pdfrwt beam="2">  1       -1 0.57421623E-02 0.27516141E+03</pdfrwt>
<totfact> 0.62976026E+03</totfact>
</mgrwt>
</event>
<event>
 5    1  0.1139158E+001  0.2755378E+03  0.7818608E-02  0.1098151E+00
          2   -1    0    0  501    0  0.00000000000E+00  0.00000000000E+00  0.14022007785E+04  0.14022007785E+04  0.00000000000E+00 0.  1.
         -2   -1    0    0    0  501 -0.00000000000E+00 -0.00000000000E+00 -0.13536053644E+02  0.13536053644E+02  0.00000000000E+00 0.  1.
         35    2    1    2    0    0  0.00000000000E+00  0.00000000000E+00  0.13886647248E+04  0.14157368321E+04  0.27553776480E+03 0.  0.
         25    1    3    3    0    0 -0.48611686419E+02  0.32628609280E+02  0.51989885122E+03  0.53677047022E+03  0.12000000000E+03 0.  0.
         25    1    3    3    0    0  0.48611686419E+02 -0.32628609280E+02  0.86876587361E+03  0.87896636190E+03  0.12000000000E+03 0.  0.
<mgrwt>
<rscale>  0 0.27553776E+03</rscale>
<asrwt>0</asrwt>
<pdfrwt beam="1">  1        2 0.21572308E+00 0.27553776E+03</pdfrwt>
<pdfrwt beam="2">  1       -2 0.20824709E-02 0.27553776E+03</pdfrwt>
<totfact> 0.11222062E+04</totfact>
</mgrwt>
</event>
<event>
 5    1  0.1139158E+001  0.2742468E+03  0.7818608E-02  0.1098873E+00
          2   -1    0    0  501    0  0.00000000000E+00  0.00000000000E+00  0.70773481454E+03  0.70773481454E+03  0.00000000000E+00 0.  1.
         -2   -1    0    0    0  501 -0.00000000000E+00 -0.00000000000E+00 -0.26567625217E+02  0.26567625217E+02  0.00000000000E+00 0.  1.
         35    2    1    2    0    0  0.00000000000E+00  0.00000000000E+00  0.68116718932E+03  0.73430243975E+03  0.27424684724E+03 0.  0.
         25    1    3    3    0    0  0.25323450511E+02 -0.12937860562E+02  0.50110483601E+03  0.51605689808E+03  0.12000000000E+03 0.  0.
         25    1    3    3    0    0 -0.25323450511E+02  0.12937860562E+02  0.18006235331E+03  0.21824554168E+03  0.12000000000E+03 0.  0.
<mgrwt>
<rscale>  0 0.27424685E+03</rscale>
<asrwt>0</asrwt>
<pdfrwt beam="1">  1        2 0.10888226E+00 0.27424685E+03</pdfrwt>
<pdfrwt beam="2">  1       -2 0.40873275E-02 0.27424685E+03</pdfrwt>
<totfact> 0.10962195E+04</totfact>
</mgrwt>
</event>
<event>
 5    1  0.1139158E+001  0.2748664E+03  0.7818608E-02  0.1098526E+00
         -1   -1    0    0    0  501 -0.00000000000E+00  0.00000000000E+00  0.74902877596E+01  0.74902877596E+01  0.00000000000E+00 0. -1.
          1   -1    0    0  501    0  0.00000000000E+00 -0.00000000000E+00 -0.25216492000E+04  0.25216492000E+04  0.00000000000E+00 0. -1.
         35    2    1    2    0    0  0.00000000000E+00  0.00000000000E+00 -0.25141589122E+04  0.25291394877E+04  0.27486635397E+03 0.  0.
         25    1    3    3    0    0  0.14181498856E+02  0.61371949626E+02 -0.10472067300E+04  0.10559401340E+04  0.12000000000E+03 0.  0.
         25    1    3    3    0    0 -0.14181498856E+02 -0.61371949626E+02 -0.14669521822E+04  0.14731993537E+04  0.12000000000E+03 0.  0.
<mgrwt>
<rscale>  0 0.27486635E+03</rscale>
<asrwt>0</asrwt>
<pdfrwt beam="1">  1        1 0.38794606E+00 0.27486635E+03</pdfrwt>
<pdfrwt beam="2">  1       -1 0.11523519E-02 0.27486635E+03</pdfrwt>
<totfact> 0.23492185E+03</totfact>
</mgrwt>
</event>
<event>
 5    1  0.1139158E+001  0.2758123E+03  0.7818608E-02  0.1097998E+00
         -2   -1    0    0    0  501 -0.00000000000E+00  0.00000000000E+00  0.10118341916E+02  0.10118341916E+02  0.00000000000E+00 0.  1.
          2   -1    0    0  501    0  0.00000000000E+00 -0.00000000000E+00 -0.18795680356E+04  0.18795680356E+04  0.00000000000E+00 0.  1.
         35    2    1    2    0    0  0.00000000000E+00  0.00000000000E+00 -0.18694496937E+04  0.18896863775E+04  0.27581234228E+03 0.  0.
         25    1    3    3    0    0  0.14797618819E+02  0.50710802049E+02 -0.12276195447E+04  0.12346012722E+04  0.12000000000E+03 0.  0.
         25    1    3    3    0    0 -0.14797618819E+02 -0.50710802049E+02 -0.64183014904E+03  0.65508510530E+03  0.12000000000E+03 0.  0.
<mgrwt>
<rscale>  0 0.27581234E+03</rscale>
<asrwt>0</asrwt>
<pdfrwt beam="1">  1        2 0.28916410E+00 0.27581234E+03</pdfrwt>
<pdfrwt beam="2">  1       -2 0.15566691E-02 0.27581234E+03</pdfrwt>
<totfact> 0.96051284E+03</totfact>
</mgrwt>
</event>
<event>
 5    1  0.1139158E+001  0.2753074E+03  0.7818608E-02  0.1098280E+00
          2   -1    0    0  501    0  0.00000000000E+00  0.00000000000E+00  0.14913875588E+04  0.14913875588E+04  0.00000000000E+00 0.  1.
         -2   -1    0    0    0  501 -0.00000000000E+00 -0.00000000000E+00 -0.12705311256E+02  0.12705311256E+02  0.00000000000E+00 0.  1.
         35    2    1    2    0    0  0.00000000000E+00  0.00000000000E+00  0.14786822475E+04  0.15040928700E+04  0.27530741463E+03 0.  0.
         25    1    3    3    0    0 -0.59005823825E+02 -0.32310749506E+01  0.91691302278E+03  0.92661837799E+03  0.12000000000E+03 0.  0.
         25    1    3    3    0    0  0.59005823825E+02  0.32310749506E+01  0.56176922473E+03  0.57747449203E+03  0.12000000000E+03 0.  0.
<mgrwt>
<rscale>  0 0.27530741E+03</rscale>
<asrwt>0</asrwt>
<pdfrwt beam="1">  1        2 0.22944410E+00 0.27530741E+03</pdfrwt>
<pdfrwt beam="2">  1       -2 0.19546644E-02 0.27530741E+03</pdfrwt>
<totfact> 0.11026926E+04</totfact>
</mgrwt>
</event>
<event>
 5    1  0.1139158E+001  0.2756756E+03  0.7818608E-02  0.1098075E+00
         -2   -1    0    0    0  501 -0.00000000000E+00  0.00000000000E+00  0.55108051113E+02  0.55108051113E+02  0.00000000000E+00 0.  1.
          2   -1    0    0  501    0  0.00000000000E+00 -0.00000000000E+00 -0.34476368020E+03  0.34476368020E+03  0.00000000000E+00 0.  1.
         35    2    1    2    0    0  0.00000000000E+00  0.00000000000E+00 -0.28965562908E+03  0.39987173131E+03  0.27567556664E+03 0.  0.
         25    1    3    3    0    0 -0.18156472151E+02  0.52427501252E+02 -0.20139707316E+03  0.24091301635E+03  0.12000000000E+03 0.  0.
         25    1    3    3    0    0  0.18156472151E+02 -0.52427501252E+02 -0.88258555922E+02  0.15895871496E+03  0.12000000000E+03 0.  0.
<mgrwt>
<rscale>  0 0.27567557E+03</rscale>
<asrwt>0</asrwt>
<pdfrwt beam="1">  1        2 0.53040566E-01 0.27567557E+03</pdfrwt>
<pdfrwt beam="2">  1       -2 0.84781618E-02 0.27567557E+03</pdfrwt>
<totfact> 0.80497746E+03</totfact>
</mgrwt>
</event>
<event>
 5    1  0.1139158E+001  0.2743545E+03  0.7818608E-02  0.1098813E+00
         -3   -1    0    0    0  501 -0.00000000000E+00  0.00000000000E+00  0.63768758011E+02  0.63768758011E+02  0.00000000000E+00 0.  1.
          3   -1    0    0  501    0  0.00000000000E+00 -0.00000000000E+00 -0.29509113551E+03  0.29509113551E+03  0.00000000000E+00 0.  1.
         35    2    1    2    0    0  0.00000000000E+00  0.00000000000E+00 -0.23132237750E+03  0.35885989352E+03  0.27435448027E+03 0.  0.
         25    1    3    3    0    0 -0.11297293517E+02  0.52049885142E+01 -0.20106242137E+03  0.23447988833E+03  0.12000000000E+03 0.  0.
         25    1    3    3    0    0  0.11297293517E+02 -0.52049885142E+01 -0.30259956134E+02  0.12438000519E+03  0.12000000000E+03 0.  0.
<mgrwt>
<rscale>  0 0.27435448E+03</rscale>
<asrwt>0</asrwt>
<pdfrwt beam="1">  1        3 0.45398636E-01 0.27435448E+03</pdfrwt>
<pdfrwt beam="2">  1       -3 0.98105782E-02 0.27435448E+03</pdfrwt>
<totfact> 0.93830129E+02</totfact>
</mgrwt>
</event>
<event>
 5    1  0.1139158E+001  0.2688242E+03  0.7818608E-02  0.1101954E+00
         -2   -1    0    0    0  501 -0.00000000000E+00  0.00000000000E+00  0.21827666405E+02  0.21827666405E+02  0.00000000000E+00 0.  1.
          2   -1    0    0  501    0  0.00000000000E+00 -0.00000000000E+00 -0.82769318365E+03  0.82769318365E+03  0.00000000000E+00 0.  1.
         35    2    1    2    0    0  0.00000000000E+00  0.00000000000E+00 -0.80586551724E+03  0.84952085005E+03  0.26882418566E+03 0.  0.
         25    1    3    3    0    0  0.23394512999E+02 -0.56294472269E+01 -0.22733563404E+03  0.25818691760E+03  0.12000000000E+03 0.  0.
         25    1    3    3    0    0 -0.23394512999E+02  0.56294472269E+01 -0.57852988320E+03  0.59133393246E+03  0.12000000000E+03 0.  0.
<mgrwt>
<rscale>  0 0.26882419E+03</rscale>
<asrwt>0</asrwt>
<pdfrwt beam="1">  1        2 0.12733742E+00 0.26882419E+03</pdfrwt>
<pdfrwt beam="2">  1       -2 0.33581023E-02 0.26882419E+03</pdfrwt>
<totfact> 0.12089583E+04</totfact>
</mgrwt>
</event>
<event>
 5    1  0.1139158E+001  0.2746699E+03  0.7818608E-02  0.1098636E+00
         -2   -1    0    0    0  501 -0.00000000000E+00  0.00000000000E+00  0.18176264996E+02  0.18176264996E+02  0.00000000000E+00 0. -1.
          2   -1    0    0  501    0  0.00000000000E+00 -0.00000000000E+00 -0.10376655755E+04  0.10376655755E+04  0.00000000000E+00 0. -1.
         35    2    1    2    0    0  0.00000000000E+00  0.00000000000E+00 -0.10194893105E+04  0.10558418405E+04  0.27466987077E+03 0.  0.
         25    1    3    3    0    0 -0.20859431171E+02 -0.10449670999E+02 -0.26917493850E+03  0.29563399501E+03  0.12000000000E+03 0.  0.
         25    1    3    3    0    0  0.20859431171E+02  0.10449670999E+02 -0.75031437198E+03  0.76020784545E+03  0.12000000000E+03 0.  0.
<mgrwt>
<rscale>  0 0.27466987E+03</rscale>
<asrwt>0</asrwt>
<pdfrwt beam="1">  1        2 0.15964086E+00 0.27466987E+03</pdfrwt>
<pdfrwt beam="2">  1       -2 0.27963484E-02 0.27466987E+03</pdfrwt>
<totfact> 0.11685458E+04</totfact>
</mgrwt>
</event>
<event>
 5    1  0.1139158E+001  0.2741648E+03  0.7818608E-02  0.1098919E+00
          4   -1    0    0  501    0  0.00000000000E+00  0.00000000000E+00  0.39194447178E+03  0.39194447178E+03  0.00000000000E+00 0. -1.
         -4   -1    0    0    0  501 -0.00000000000E+00 -0.00000000000E+00 -0.47944506639E+02  0.47944506639E+02  0.00000000000E+00 0. -1.
         35    2    1    2    0    0  0.00000000000E+00  0.00000000000E+00  0.34399996514E+03  0.43988897842E+03  0.27416479956E+03 0.  0.
         25    1    3    3    0    0 -0.72523691369E+01  0.53912864056E+02  0.11127573928E+03  0.17245719446E+03  0.12000000000E+03 0.  0.
         25    1    3    3    0    0  0.72523691369E+01 -0.53912864056E+02  0.23272422586E+03  0.26743178396E+03  0.12000000000E+03 0.  0.
<mgrwt>
<rscale>  0 0.27416480E+03</rscale>
<asrwt>0</asrwt>
<pdfrwt beam="1">  1        4 0.60299147E-01 0.27416480E+03</pdfrwt>
<pdfrwt beam="2">  1       -4 0.73760782E-02 0.27416480E+03</pdfrwt>
<totfact> 0.62148114E+02</totfact>
</mgrwt>
</event>
<event>
 5    1  0.1139158E+001  0.2743356E+03  0.7818608E-02  0.1098824E+00
         -1   -1    0    0    0  501 -0.00000000000E+00  0.00000000000E+00  0.19315739494E+03  0.19315739494E+03  0.00000000000E+00 0. -1.
          1   -1    0    0  501    0  0.00000000000E+00 -0.00000000000E+00 -0.97407656730E+02  0.97407656730E+02  0.00000000000E+00 0. -1.
         35    2    1    2    0    0  0.00000000000E+00  0.00000000000E+00  0.95749738213E+02  0.29056505167E+03  0.27433562818E+03 0.  0.
         25    1    3    3    0    0 -0.10983644678E+02  0.49333741145E+02  0.21889964350E+01  0.13022768589E+03  0.12000000000E+03 0.  0.
         25    1    3    3    0    0  0.10983644678E+02 -0.49333741145E+02  0.93560741778E+02  0.16033736579E+03  0.12000000000E+03 0.  0.
<mgrwt>
<rscale>  0 0.27433563E+03</rscale>
<asrwt>0</asrwt>
<pdfrwt beam="1">  1        1 0.14985793E-01 0.27433563E+03</pdfrwt>
<pdfrwt beam="2">  1       -1 0.29716522E-01 0.27433563E+03</pdfrwt>
<totfact> 0.38531246E+03</totfact>
</mgrwt>
</event>
<event>
 5    1  0.1139158E+001  0.2747087E+03  0.7818608E-02  0.1098615E+00
          2   -1    0    0  501    0  0.00000000000E+00  0.00000000000E+00  0.50755928170E+02  0.50755928170E+02  0.00000000000E+00 0. -1.
         -2   -1    0    0    0  501 -0.00000000000E+00 -0.00000000000E+00 -0.37170476850E+03  0.37170476850E+03  0.00000000000E+00 0. -1.
         35    2    1    2    0    0  0.00000000000E+00  0.00000000000E+00 -0.32094884033E+03  0.42246069667E+03  0.27470872232E+03 0.  0.
         25    1    3    3    0    0  0.37711382969E+02 -0.38105504524E+02 -0.22183524810E+03  0.25784696078E+03  0.12000000000E+03 0.  0.
         25    1    3    3    0    0 -0.37711382969E+02  0.38105504524E+02 -0.99113592222E+02  0.16461373589E+03  0.12000000000E+03 0.  0.
<mgrwt>
<rscale>  0 0.27470872E+03</rscale>
<asrwt>0</asrwt>
<pdfrwt beam="1">  1        2 0.78086044E-02 0.27470872E+03</pdfrwt>
<pdfrwt beam="2">  1       -2 0.57185349E-01 0.27470872E+03</pdfrwt>
<totfact> 0.25549802E+03</totfact>
</mgrwt>
</event>
<event>
 5    1  0.1139158E+001  0.2760808E+03  0.7818608E-02  0.1097849E+00
         -2   -1    0    0    0  501 -0.00000000000E+00  0.00000000000E+00  0.34951330912E+02  0.34951330912E+02  0.00000000000E+00 0. -1.
          2   -1    0    0  501    0  0.00000000000E+00 -0.00000000000E+00 -0.54519083278E+03  0.54519083278E+03  0.00000000000E+00 0. -1.
         35    2    1    2    0    0  0.00000000000E+00  0.00000000000E+00 -0.51023950187E+03  0.58014216369E+03  0.27608075055E+03 0.  0.
         25    1    3    3    0    0 -0.65450163508E+02 -0.19109901883E+02 -0.24987354606E+03  0.28545700425E+03  0.12000000000E+03 0.  0.
         25    1    3    3    0    0  0.65450163508E+02  0.19109901883E+02 -0.26036595581E+03  0.29468515945E+03  0.12000000000E+03 0.  0.
<mgrwt>
<rscale>  0 0.27608075E+03</rscale>
<asrwt>0</asrwt>
<pdfrwt beam="1">  1        2 0.83875515E-01 0.27608075E+03</pdfrwt>
<pdfrwt beam="2">  1       -2 0.53771277E-02 0.27608075E+03</pdfrwt>
<totfact> 0.98296993E+03</totfact>
</mgrwt>
</event>
<event>
 5    1  0.1139158E+001  0.2750277E+03  0.7818608E-02  0.1098436E+00
         -2   -1    0    0    0  501 -0.00000000000E+00  0.00000000000E+00  0.75181788408E+02  0.75181788408E+02  0.00000000000E+00 0. -1.
          2   -1    0    0  501    0  0.00000000000E+00 -0.00000000000E+00 -0.25152439346E+03  0.25152439346E+03  0.00000000000E+00 0. -1.
         35    2    1    2    0    0  0.00000000000E+00  0.00000000000E+00 -0.17634260505E+03  0.32670618187E+03  0.27502766209E+03 0.  0.
         25    1    3    3    0    0  0.60914337458E+02  0.25716115301E+02 -0.10213503190E+03  0.17089013967E+03  0.12000000000E+03 0.  0.
         25    1    3    3    0    0 -0.60914337458E+02 -0.25716115301E+02 -0.74207573151E+02  0.15581604220E+03  0.12000000000E+03 0.  0.
<mgrwt>
<rscale>  0 0.27502766E+03</rscale>
<asrwt>0</asrwt>
<pdfrwt beam="1">  1        2 0.38696062E-01 0.27502766E+03</pdfrwt>
<pdfrwt beam="2">  1       -2 0.11566429E-01 0.27502766E+03</pdfrwt>
<totfact> 0.69008080E+03</totfact>
</mgrwt>
</event>
<event>
 5    1  0.1139158E+001  0.2801988E+03  0.7818608E-02  0.1095580E+00
         -2   -1    0    0    0  501 -0.00000000000E+00  0.00000000000E+00  0.12373273404E+02  0.12373273404E+02  0.00000000000E+00 0.  1.
          2   -1    0    0  501    0  0.00000000000E+00 -0.00000000000E+00 -0.15863090625E+04  0.15863090625E+04  0.00000000000E+00 0.  1.
         35    2    1    2    0    0  0.00000000000E+00  0.00000000000E+00 -0.15739357891E+04  0.15986823359E+04  0.28019875612E+03 0.  0.
         25    1    3    3    0    0 -0.53820570584E+02 -0.12178228578E+02 -0.52039856821E+03  0.53689815874E+03  0.12000000000E+03 0.  0.
         25    1    3    3    0    0  0.53820570584E+02  0.12178228578E+02 -0.10535372208E+04  0.10617841771E+04  0.12000000000E+03 0.  0.
<mgrwt>
<rscale>  0 0.28019876E+03</rscale>
<asrwt>0</asrwt>
<pdfrwt beam="1">  1        2 0.24404737E+00 0.28019876E+03</pdfrwt>
<pdfrwt beam="2">  1       -2 0.19035819E-02 0.28019876E+03</pdfrwt>
<totfact> 0.10206933E+04</totfact>
</mgrwt>
</event>
<event>
 5    1  0.1139158E+001  0.2738729E+03  0.7818608E-02  0.1099083E+00
          2   -1    0    0  501    0  0.00000000000E+00  0.00000000000E+00  0.14722594497E+04  0.14722594497E+04  0.00000000000E+00 0.  1.
         -2   -1    0    0    0  501 -0.00000000000E+00 -0.00000000000E+00 -0.12736609491E+02  0.12736609491E+02  0.00000000000E+00 0.  1.
         35    2    1    2    0    0  0.00000000000E+00  0.00000000000E+00  0.14595228403E+04  0.14849960592E+04  0.27387291710E+03 0.  0.
         25    1    3    3    0    0 -0.59744082798E+02 -0.18591049315E+02  0.84305977871E+03  0.85385289894E+03  0.12000000000E+03 0.  0.
         25    1    3    3    0    0  0.59744082798E+02  0.18591049315E+02  0.61646306154E+03  0.63114316030E+03  0.12000000000E+03 0.  0.
<mgrwt>
<rscale>  0 0.27387292E+03</rscale>
<asrwt>0</asrwt>
<pdfrwt beam="1">  1        2 0.22650132E+00 0.27387292E+03</pdfrwt>
<pdfrwt beam="2">  1       -2 0.19594796E-02 0.27387292E+03</pdfrwt>
<totfact> 0.11248553E+04</totfact>
</mgrwt>
</event>
<event>
 5    1  0.1139158E+001  0.2762067E+03  0.7818608E-02  0.1097779E+00
         -1   -1    0    0    0  501 -0.00000000000E+00  0.00000000000E+00  0.38720239702E+02  0.38720239702E+02  0.00000000000E+00 0.  1.
          1   -1    0    0  501    0  0.00000000000E+00 -0.00000000000E+00 -0.49257290266E+03  0.49257290266E+03  0.00000000000E+00 0.  1.
         35    2    1    2    0    0  0.00000000000E+00  0.00000000000E+00 -0.45385266295E+03  0.53129314236E+03  0.27620674041E+03 0.  0.
         25    1    3    3    0    0  0.10230807879E+01  0.67250561442E+02 -0.20345793950E+03  0.24559889628E+03  0.12000000000E+03 0.  0.
         25    1    3    3    0    0 -0.10230807879E+01 -0.67250561442E+02 -0.25039472346E+03  0.28569424608E+03  0.12000000000E+03 0.  0.
<mgrwt>
<rscale>  0 0.27620674E+03</rscale>
<asrwt>0</asrwt>
<pdfrwt beam="1">  1        1 0.75780445E-01 0.27620674E+03</pdfrwt>
<pdfrwt beam="2">  1       -1 0.59569600E-02 0.27620674E+03</pdfrwt>
<totfact> 0.61945198E+03</totfact>
</mgrwt>
</event>
<event>
 5    1  0.1139158E+001  0.2762576E+03  0.7818608E-02  0.1097751E+00
          1   -1    0    0  501    0  0.00000000000E+00  0.00000000000E+00  0.20116057720E+04  0.20116057720E+04  0.00000000000E+00 0. -1.
         -1   -1    0    0    0  501 -0.00000000000E+00 -0.00000000000E+00 -0.94847449690E+01  0.94847449690E+01  0.00000000000E+00 0. -1.
         35    2    1    2    0    0  0.00000000000E+00  0.00000000000E+00  0.20021210271E+04  0.20210905170E+04  0.27625761692E+03 0.  0.
         25    1    3    3    0    0  0.80683780397E+01 -0.48201435580E+02  0.65087946732E+03  0.66365093091E+03  0.12000000000E+03 0.  0.
         25    1    3    3    0    0 -0.80683780397E+01  0.48201435580E+02  0.13512415598E+04  0.13574395861E+04  0.12000000000E+03 0.  0.
<mgrwt>
<rscale>  0 0.27625762E+03</rscale>
<asrwt>0</asrwt>
<pdfrwt beam="1">  1        1 0.30947747E+00 0.27625762E+03</pdfrwt>
<pdfrwt beam="2">  1       -1 0.14591931E-02 0.27625762E+03</pdfrwt>
<totfact> 0.36025151E+03</totfact>
</mgrwt>
</event>
<event>
 5    1  0.1139158E+001  0.2795594E+03  0.7818608E-02  0.1095930E+00
          1   -1    0    0  501    0  0.00000000000E+00  0.00000000000E+00  0.80989897526E+03  0.80989897526E+03  0.00000000000E+00 0.  1.
         -1   -1    0    0    0  501 -0.00000000000E+00 -0.00000000000E+00 -0.24124451298E+02  0.24124451298E+02  0.00000000000E+00 0.  1.
         35    2    1    2    0    0  0.00000000000E+00  0.00000000000E+00  0.78577452397E+03  0.83402342656E+03  0.27955942756E+03 0.  0.
         25    1    3    3    0    0 -0.35735963908E+02 -0.21760816734E+02  0.56653193246E+03  0.58061090479E+03  0.12000000000E+03 0.  0.
         25    1    3    3    0    0  0.35735963908E+02  0.21760816734E+02  0.21924259150E+03  0.25341252177E+03  0.12000000000E+03 0.  0.
<mgrwt>
<rscale>  0 0.27955943E+03</rscale>
<asrwt>0</asrwt>
<pdfrwt beam="1">  1        1 0.12459982E+00 0.27955943E+03</pdfrwt>
<pdfrwt beam="2">  1       -1 0.37114547E-02 0.27955943E+03</pdfrwt>
<totfact> 0.62081651E+03</totfact>
</mgrwt>
</event>
<event>
 5    1  0.1139158E+001  0.2746892E+03  0.7818608E-02  0.1098625E+00
          2   -1    0    0  501    0  0.00000000000E+00  0.00000000000E+00  0.48160269129E+03  0.48160269129E+03  0.00000000000E+00 0.  1.
         -2   -1    0    0    0  501 -0.00000000000E+00 -0.00000000000E+00 -0.39168257158E+02  0.39168257158E+02  0.00000000000E+00 0.  1.
         35    2    1    2    0    0  0.00000000000E+00  0.00000000000E+00  0.44243443413E+03  0.52077094845E+03  0.27468919207E+03 0.  0.
         25    1    3    3    0    0 -0.45608773609E+02 -0.46976582487E+02  0.19602455139E+03  0.23898239324E+03  0.12000000000E+03 0.  0.
         25    1    3    3    0    0  0.45608773609E+02  0.46976582487E+02  0.24640988274E+03  0.28178855521E+03  0.12000000000E+03 0.  0.
<mgrwt>
<rscale>  0 0.27468919E+03</rscale>
<asrwt>0</asrwt>
<pdfrwt beam="1">  1        2 0.74092718E-01 0.27468919E+03</pdfrwt>
<pdfrwt beam="2">  1       -2 0.60258860E-02 0.27468919E+03</pdfrwt>
<totfact> 0.94909669E+03</totfact>
</mgrwt>
</event>
<event>
 5    1  0.1139158E+001  0.2765894E+03  0.7818608E-02  0.1097566E+00
         -1   -1    0    0    0  501 -0.00000000000E+00  0.00000000000E+00  0.13917906189E+02  0.13917906189E+02  0.00000000000E+00 0. -1.
          1   -1    0    0  501    0  0.00000000000E+00 -0.00000000000E+00 -0.13741595522E+04  0.13741595522E+04  0.00000000000E+00 0. -1.
         35    2    1    2    0    0  0.00000000000E+00  0.00000000000E+00 -0.13602416460E+04  0.13880774584E+04  0.27658939775E+03 0.  0.
         25    1    3    3    0    0 -0.38604672887E+02 -0.32969149693E+02 -0.44752105591E+03  0.46610340171E+03  0.12000000000E+03 0.  0.
         25    1    3    3    0    0  0.38604672887E+02  0.32969149693E+02 -0.91272059011E+03  0.92197405669E+03  0.12000000000E+03 0.  0.
<mgrwt>
<rscale>  0 0.27658940E+03</rscale>
<asrwt>0</asrwt>
<pdfrwt beam="1">  1        1 0.21140904E+00 0.27658940E+03</pdfrwt>
<pdfrwt beam="2">  1       -1 0.21412175E-02 0.27658940E+03</pdfrwt>
<totfact> 0.53904564E+03</totfact>
</mgrwt>
</event>
<event>
 5    1  0.1139158E+001  0.2739875E+03  0.7818608E-02  0.1099019E+00
          2   -1    0    0  501    0  0.00000000000E+00  0.00000000000E+00  0.14916483157E+04  0.14916483157E+04  0.00000000000E+00 0.  1.
         -2   -1    0    0    0  501 -0.00000000000E+00 -0.00000000000E+00 -0.12581572196E+02  0.12581572196E+02  0.00000000000E+00 0.  1.
         35    2    1    2    0    0  0.00000000000E+00  0.00000000000E+00  0.14790667435E+04  0.15042298879E+04  0.27398745209E+03 0.  0.
         25    1    3    3    0    0 -0.56470766682E+02  0.34187300251E+02  0.75651024216E+03  0.76880782091E+03  0.12000000000E+03 0.  0.
         25    1    3    3    0    0  0.56470766682E+02 -0.34187300251E+02  0.72255650137E+03  0.73542206702E+03  0.12000000000E+03 0.  0.
<mgrwt>
<rscale>  0 0.27398745E+03</rscale>
<asrwt>0</asrwt>
<pdfrwt beam="1">  1        2 0.22948422E+00 0.27398745E+03</pdfrwt>
<pdfrwt beam="2">  1       -2 0.19356277E-02 0.27398745E+03</pdfrwt>
<totfact> 0.11181996E+04</totfact>
</mgrwt>
</event>
<event>
 5    1  0.1139158E+001  0.2753677E+03  0.7818608E-02  0.1098246E+00
          2   -1    0    0  501    0  0.00000000000E+00  0.00000000000E+00  0.12192429917E+04  0.12192429917E+04  0.00000000000E+00 0. -1.
         -2   -1    0    0    0  501 -0.00000000000E+00 -0.00000000000E+00 -0.15548040377E+02  0.15548040377E+02  0.00000000000E+00 0. -1.
         35    2    1    2    0    0  0.00000000000E+00  0.00000000000E+00  0.12036949513E+04  0.12347910321E+04  0.27536767612E+03 0.  0.
         25    1    3    3    0    0 -0.50536139824E+02  0.20728554904E+02  0.42398619027E+03  0.44401336011E+03  0.12000000000E+03 0.  0.
         25    1    3    3    0    0  0.50536139824E+02 -0.20728554904E+02  0.77970876103E+03  0.79077767195E+03  0.12000000000E+03 0.  0.
<mgrwt>
<rscale>  0 0.27536768E+03</rscale>
<asrwt>0</asrwt>
<pdfrwt beam="1">  1        2 0.18757577E+00 0.27536768E+03</pdfrwt>
<pdfrwt beam="2">  1       -2 0.23920072E-02 0.27536768E+03</pdfrwt>
<totfact> 0.11546492E+04</totfact>
</mgrwt>
</event>
<event>
 5    1  0.1139158E+001  0.2753790E+03  0.7818608E-02  0.1098240E+00
         -1   -1    0    0    0  501 -0.00000000000E+00  0.00000000000E+00  0.45320127866E+02  0.45320127866E+02  0.00000000000E+00 0. -1.
          1   -1    0    0  501    0  0.00000000000E+00 -0.00000000000E+00 -0.41832181084E+03  0.41832181084E+03  0.00000000000E+00 0. -1.
         35    2    1    2    0    0  0.00000000000E+00  0.00000000000E+00 -0.37300168297E+03  0.46364193871E+03  0.27537899670E+03 0.  0.
         25    1    3    3    0    0 -0.81658442046E+01  0.48844984910E+02 -0.26376341377E+03  0.29397899926E+03  0.12000000000E+03 0.  0.
         25    1    3    3    0    0  0.81658442046E+01 -0.48844984910E+02 -0.10923826920E+03  0.16966293944E+03  0.12000000000E+03 0.  0.
<mgrwt>
<rscale>  0 0.27537900E+03</rscale>
<asrwt>0</asrwt>
<pdfrwt beam="1">  1        1 0.64357201E-01 0.27537900E+03</pdfrwt>
<pdfrwt beam="2">  1       -1 0.69723274E-02 0.27537900E+03</pdfrwt>
<totfact> 0.60428357E+03</totfact>
</mgrwt>
</event>
<event>
 5    1  0.1139158E+001  0.2749408E+03  0.7818608E-02  0.1098485E+00
         -1   -1    0    0    0  501 -0.00000000000E+00  0.00000000000E+00  0.31949294373E+02  0.31949294373E+02  0.00000000000E+00 0.  1.
          1   -1    0    0  501    0  0.00000000000E+00 -0.00000000000E+00 -0.59150328061E+03  0.59150328061E+03  0.00000000000E+00 0.  1.
         35    2    1    2    0    0  0.00000000000E+00  0.00000000000E+00 -0.55955398623E+03  0.62345257498E+03  0.27494081134E+03 0.  0.
         25    1    3    3    0    0 -0.11350539530E+02 -0.57550318594E+02 -0.20604589511E+03  0.24555200021E+03  0.12000000000E+03 0.  0.
         25    1    3    3    0    0  0.11350539530E+02  0.57550318594E+02 -0.35350809113E+03  0.37790057477E+03  0.12000000000E+03 0.  0.
<mgrwt>
<rscale>  0 0.27494081E+03</rscale>
<asrwt>0</asrwt>
<pdfrwt beam="1">  1        1 0.91000501E-01 0.27494081E+03</pdfrwt>
<pdfrwt beam="2">  1       -1 0.49152763E-02 0.27494081E+03</pdfrwt>
<totfact> 0.64548505E+03</totfact>
</mgrwt>
</event>
<event>
 5    1  0.1139158E+001  0.2747316E+03  0.7818608E-02  0.1098602E+00
         -1   -1    0    0    0  501 -0.00000000000E+00  0.00000000000E+00  0.18951167874E+02  0.18951167874E+02  0.00000000000E+00 0. -1.
          1   -1    0    0  501    0  0.00000000000E+00 -0.00000000000E+00 -0.99568353542E+03  0.99568353542E+03  0.00000000000E+00 0. -1.
         35    2    1    2    0    0  0.00000000000E+00  0.00000000000E+00 -0.97673236754E+03  0.10146347033E+04  0.27473162052E+03 0.  0.
         25    1    3    3    0    0  0.50106511357E+02  0.16045965316E+02 -0.64069519562E+03  0.65395601471E+03  0.12000000000E+03 0.  0.
         25    1    3    3    0    0 -0.50106511357E+02 -0.16045965316E+02 -0.33603717193E+03  0.36067868858E+03  0.12000000000E+03 0.  0.
<mgrwt>
<rscale>  0 0.27473162E+03</rscale>
<asrwt>0</asrwt>
<pdfrwt beam="1">  1        1 0.15318209E+00 0.27473162E+03</pdfrwt>
<pdfrwt beam="2">  1       -1 0.29155642E-02 0.27473162E+03</pdfrwt>
<totfact> 0.63348797E+03</totfact>
</mgrwt>
</event>
<event>
 5    1  0.1139158E+001  0.2756003E+03  0.7818608E-02  0.1098117E+00
          1   -1    0    0  501    0  0.00000000000E+00  0.00000000000E+00  0.31775877076E+03  0.31775877076E+03  0.00000000000E+00 0. -1.
         -1   -1    0    0    0  501 -0.00000000000E+00 -0.00000000000E+00 -0.59758806181E+02  0.59758806181E+02  0.00000000000E+00 0. -1.
         35    2    1    2    0    0  0.00000000000E+00  0.00000000000E+00  0.25799996457E+03  0.37751757694E+03  0.27560032506E+03 0.  0.
         25    1    3    3    0    0 -0.12403890610E+02  0.62946291382E+02  0.15878465480E+03  0.20911398495E+03  0.12000000000E+03 0.  0.
         25    1    3    3    0    0  0.12403890610E+02 -0.62946291382E+02  0.99215309773E+02  0.16840359199E+03  0.12000000000E+03 0.  0.
<mgrwt>
<rscale>  0 0.27560033E+03</rscale>
<asrwt>0</asrwt>
<pdfrwt beam="1">  1        1 0.48885964E-01 0.27560033E+03</pdfrwt>
<pdfrwt beam="2">  1       -1 0.91936627E-02 0.27560033E+03</pdfrwt>
<totfact> 0.56203951E+03</totfact>
</mgrwt>
</event>
<event>
 5    1  0.1139158E+001  0.2750081E+03  0.7818608E-02  0.1098447E+00
          2   -1    0    0  501    0  0.00000000000E+00  0.00000000000E+00  0.17559459491E+04  0.17559459491E+04  0.00000000000E+00 0.  1.
         -2   -1    0    0    0  501 -0.00000000000E+00 -0.00000000000E+00 -0.10767624801E+02  0.10767624801E+02  0.00000000000E+00 0.  1.
         35    2    1    2    0    0  0.00000000000E+00  0.00000000000E+00  0.17451783243E+04  0.17667135739E+04  0.27500812461E+03 0.  0.
         25    1    3    3    0    0  0.47146084810E+02  0.15798610621E+02  0.11623933928E+04  0.11696284662E+04  0.12000000000E+03 0.  0.
         25    1    3    3    0    0 -0.47146084810E+02 -0.15798610621E+02  0.58278493157E+03  0.59708510773E+03  0.12000000000E+03 0.  0.
<mgrwt>
<rscale>  0 0.27500812E+03</rscale>
<asrwt>0</asrwt>
<pdfrwt beam="1">  1        2 0.27014530E+00 0.27500812E+03</pdfrwt>
<pdfrwt beam="2">  1       -2 0.16565591E-02 0.27500812E+03</pdfrwt>
<totfact> 0.10181960E+04</totfact>
</mgrwt>
</event>
<event>
 5    1  0.1139158E+001  0.2755347E+03  0.7818608E-02  0.1098153E+00
         -2   -1    0    0    0  501 -0.00000000000E+00  0.00000000000E+00  0.27985362120E+03  0.27985362120E+03  0.00000000000E+00 0. -1.
          2   -1    0    0  501    0  0.00000000000E+00 -0.00000000000E+00 -0.67820612906E+02  0.67820612906E+02  0.00000000000E+00 0. -1.
         35    2    1    2    0    0  0.00000000000E+00  0.00000000000E+00  0.21203300829E+03  0.34767423411E+03  0.27553471007E+03 0.  0.
         25    1    3    3    0    0 -0.41034574992E+01  0.60325947357E+02  0.14436795848E+03  0.19722617910E+03  0.12000000000E+03 0.  0.
         25    1    3    3    0    0  0.41034574992E+01 -0.60325947357E+02  0.67665049815E+02  0.15044805500E+03  0.12000000000E+03 0.  0.
<mgrwt>
<rscale>  0 0.27553471E+03</rscale>
<asrwt>0</asrwt>
<pdfrwt beam="1">  1        2 0.10433941E-01 0.27553471E+03</pdfrwt>
<pdfrwt beam="2">  1       -2 0.43054403E-01 0.27553471E+03</pdfrwt>
<totfact> 0.31260126E+03</totfact>
</mgrwt>
</event>
<event>
 5    1  0.1139158E+001  0.2739437E+03  0.7818608E-02  0.1099043E+00
         -2   -1    0    0    0  501 -0.00000000000E+00  0.00000000000E+00  0.66913135807E+02  0.66913135807E+02  0.00000000000E+00 0. -1.
          2   -1    0    0  501    0  0.00000000000E+00 -0.00000000000E+00 -0.28038275143E+03  0.28038275143E+03  0.00000000000E+00 0. -1.
         35    2    1    2    0    0  0.00000000000E+00  0.00000000000E+00 -0.21346961562E+03  0.34729588724E+03  0.27394371046E+03 0.  0.
         25    1    3    3    0    0  0.28558923865E+02  0.26116673492E+02 -0.38893500661E+02  0.13194846403E+03  0.12000000000E+03 0.  0.
         25    1    3    3    0    0 -0.28558923865E+02 -0.26116673492E+02 -0.17457611496E+03  0.21534742321E+03  0.12000000000E+03 0.  0.
<mgrwt>
<rscale>  0 0.27394371E+03</rscale>
<asrwt>0</asrwt>
<pdfrwt beam="1">  1        2 0.43135808E-01 0.27394371E+03</pdfrwt>
<pdfrwt beam="2">  1       -2 0.10294329E-01 0.27394371E+03</pdfrwt>
<totfact> 0.73966268E+03</totfact>
</mgrwt>
</event>
<event>
 5    1  0.1139158E+001  0.2737725E+03  0.7818608E-02  0.1099140E+00
          1   -1    0    0  501    0  0.00000000000E+00  0.00000000000E+00  0.29695393046E+03  0.29695393046E+03  0.00000000000E+00 0.  1.
         -1   -1    0    0    0  501 -0.00000000000E+00 -0.00000000000E+00 -0.63100192537E+02  0.63100192537E+02  0.00000000000E+00 0.  1.
         35    2    1    2    0    0  0.00000000000E+00  0.00000000000E+00  0.23385373793E+03  0.36005412300E+03  0.27377253468E+03 0.  0.
         25    1    3    3    0    0 -0.89076480637E+01  0.43880619560E+01  0.31297573670E+02  0.12441117072E+03  0.12000000000E+03 0.  0.
         25    1    3    3    0    0  0.89076480637E+01 -0.43880619560E+01  0.20255616426E+03  0.23564295228E+03  0.12000000000E+03 0.  0.
<mgrwt>
<rscale>  0 0.27377253E+03</rscale>
<asrwt>0</asrwt>
<pdfrwt beam="1">  1        1 0.45685219E-01 0.27377253E+03</pdfrwt>
<pdfrwt beam="2">  1       -1 0.97077221E-02 0.27377253E+03</pdfrwt>
<totfact> 0.56271518E+03</totfact>
</mgrwt>
</event>
<event>
 5    1  0.1139158E+001  0.2750529E+03  0.7818608E-02  0.1098422E+00
          2   -1    0    0  501    0  0.00000000000E+00  0.00000000000E+00  0.26655858779E+04  0.26655858779E+04  0.00000000000E+00 0.  1.
         -2   -1    0    0    0  501 -0.00000000000E+00 -0.00000000000E+00 -0.70954491885E+01  0.70954491885E+01  0.00000000000E+00 0.  1.
         35    2    1    2    0    0  0.00000000000E+00  0.00000000000E+00  0.26584904287E+04  0.26726813271E+04  0.27505293421E+03 0.  0.
         25    1    3    3    0    0 -0.13972830475E+02 -0.20786481310E+02  0.19349961665E+04  0.19388753137E+04  0.12000000000E+03 0.  0.
         25    1    3    3    0    0  0.13972830475E+02  0.20786481310E+02  0.72349426217E+03  0.73380601332E+03  0.12000000000E+03 0.  0.
<mgrwt>
<rscale>  0 0.27505293E+03</rscale>
<asrwt>0</asrwt>
<pdfrwt beam="1">  1        2 0.41008933E+00 0.27505293E+03</pdfrwt>
<pdfrwt beam="2">  1       -2 0.10916097E-02 0.27505293E+03</pdfrwt>
<totfact> 0.60931758E+03</totfact>
</mgrwt>
</event>
<event>
 5    1  0.1139158E+001  0.2752570E+03  0.7818608E-02  0.1098308E+00
          1   -1    0    0  501    0  0.00000000000E+00  0.00000000000E+00  0.38945699997E+03  0.38945699997E+03  0.00000000000E+00 0. -1.
         -1   -1    0    0    0  501 -0.00000000000E+00 -0.00000000000E+00 -0.48635939936E+02  0.48635939936E+02  0.00000000000E+00 0. -1.
         35    2    1    2    0    0  0.00000000000E+00  0.00000000000E+00  0.34082106003E+03  0.43809293991E+03  0.27525702359E+03 0.  0.
         25    1    3    3    0    0  0.56286608905E+02  0.19232257484E+02  0.11999128812E+03  0.17982205452E+03  0.12000000000E+03 0.  0.
         25    1    3    3    0    0 -0.56286608905E+02 -0.19232257484E+02  0.22082977192E+03  0.25827088538E+03  0.12000000000E+03 0.  0.
<mgrwt>
<rscale>  0 0.27525702E+03</rscale>
<asrwt>0</asrwt>
<pdfrwt beam="1">  1        1 0.59916460E-01 0.27525702E+03</pdfrwt>
<pdfrwt beam="2">  1       -1 0.74824525E-02 0.27525702E+03</pdfrwt>
<totfact> 0.59496631E+03</totfact>
</mgrwt>
</event>
<event>
 5    1  0.1139158E+001  0.2756351E+03  0.7818608E-02  0.1098097E+00
          2   -1    0    0  501    0  0.00000000000E+00  0.00000000000E+00  0.85082557703E+03  0.85082557703E+03  0.00000000000E+00 0.  1.
         -2   -1    0    0    0  501 -0.00000000000E+00 -0.00000000000E+00 -0.22323820539E+02  0.22323820539E+02  0.00000000000E+00 0.  1.
         35    2    1    2    0    0  0.00000000000E+00  0.00000000000E+00  0.82850175649E+03  0.87314939757E+03  0.27563510293E+03 0.  0.
         25    1    3    3    0    0  0.23366962210E+02  0.49869239454E+02  0.28910494441E+03  0.31782797996E+03  0.12000000000E+03 0.  0.
         25    1    3    3    0    0 -0.23366962210E+02 -0.49869239454E+02  0.53939681208E+03  0.55532141761E+03  0.12000000000E+03 0.  0.
<mgrwt>
<rscale>  0 0.27563510E+03</rscale>
<asrwt>0</asrwt>
<pdfrwt beam="1">  1        2 0.13089622E+00 0.27563510E+03</pdfrwt>
<pdfrwt beam="2">  1       -2 0.34344346E-02 0.27563510E+03</pdfrwt>
<totfact> 0.11289493E+04</totfact>
</mgrwt>
</event>
<event>
 5    1  0.1139158E+001  0.2753928E+03  0.7818608E-02  0.1098232E+00
         -2   -1    0    0    0  501 -0.00000000000E+00  0.00000000000E+00  0.20232039032E+02  0.20232039032E+02  0.00000000000E+00 0. -1.
          2   -1    0    0  501    0  0.00000000000E+00 -0.00000000000E+00 -0.93714258352E+03  0.93714258352E+03  0.00000000000E+00 0. -1.
         35    2    1    2    0    0  0.00000000000E+00  0.00000000000E+00 -0.91691054449E+03  0.95737462256E+03  0.27539284906E+03 0.  0.
         25    1    3    3    0    0  0.17715073310E+02  0.58981580306E+02 -0.55477432576E+03  0.57093537565E+03  0.12000000000E+03 0.  0.
         25    1    3    3    0    0 -0.17715073310E+02 -0.58981580306E+02 -0.36213621873E+03  0.38643924691E+03  0.12000000000E+03 0.  0.
<mgrwt>
<rscale>  0 0.27539285E+03</rscale>
<asrwt>0</asrwt>
<pdfrwt beam="1">  1        2 0.14417577E+00 0.27539285E+03</pdfrwt>
<pdfrwt beam="2">  1       -2 0.31126216E-02 0.27539285E+03</pdfrwt>
<totfact> 0.11493394E+04</totfact>
</mgrwt>
</event>
<event>
 5    1  0.1139158E+001  0.2754638E+03  0.7818608E-02  0.1098193E+00
         -2   -1    0    0    0  501 -0.00000000000E+00  0.00000000000E+00  0.43098908859E+03  0.43098908859E+03  0.00000000000E+00 0. -1.
          2   -1    0    0  501    0  0.00000000000E+00 -0.00000000000E+00 -0.44015214889E+02  0.44015214889E+02  0.00000000000E+00 0. -1.
         35    2    1    2    0    0  0.00000000000E+00  0.00000000000E+00  0.38697387370E+03  0.47500430347E+03  0.27546380778E+03 0.  0.
         25    1    3    3    0    0 -0.20162002603E+02 -0.37873128492E+02  0.10340235824E+03  0.16411254644E+03  0.12000000000E+03 0.  0.
         25    1    3    3    0    0  0.20162002603E+02  0.37873128492E+02  0.28357151546E+03  0.31089175703E+03  0.12000000000E+03 0.  0.
<mgrwt>
<rscale>  0 0.27546381E+03</rscale>
<asrwt>0</asrwt>
<pdfrwt beam="1">  1        2 0.67715718E-02 0.27546381E+03</pdfrwt>
<pdfrwt beam="2">  1       -2 0.66306011E-01 0.27546381E+03</pdfrwt>
<totfact> 0.22539603E+03</totfact>
</mgrwt>
</event>
<event>
 5    1  0.1139158E+001  0.2755344E+03  0.7818608E-02  0.1098153E+00
          3   -1    0    0  501    0  0.00000000000E+00  0.00000000000E+00  0.19155065319E+02  0.19155065319E+02  0.00000000000E+00 0.  1.
         -3   -1    0    0    0  501 -0.00000000000E+00 -0.00000000000E+00 -0.99085042294E+03  0.99085042294E+03  0.00000000000E+00 0.  1.
         35    2    1    2    0    0  0.00000000000E+00  0.00000000000E+00 -0.97169535762E+03  0.10100054883E+04  0.27553442306E+03 0.  0.
         25    1    3    3    0    0 -0.45313145781E+02  0.28892647325E+02 -0.63661751519E+03  0.65005378769E+03  0.12000000000E+03 0.  0.
         25    1    3    3    0    0  0.45313145781E+02 -0.28892647325E+02 -0.33507784243E+03  0.35995170056E+03  0.12000000000E+03 0.  0.
<mgrwt>
<rscale>  0 0.27553442E+03</rscale>
<asrwt>0</asrwt>
<pdfrwt beam="1">  1        3 0.29469336E-02 0.27553442E+03</pdfrwt>
<pdfrwt beam="2">  1       -3 0.15243850E+00 0.27553442E+03</pdfrwt>
<totfact> 0.43604769E+02</totfact>
</mgrwt>
</event>
<event>
 5    1  0.1139158E+001  0.2754078E+03  0.7818608E-02  0.1098224E+00
         -2   -1    0    0    0  501 -0.00000000000E+00  0.00000000000E+00  0.76169034498E+03  0.76169034498E+03  0.00000000000E+00 0. -1.
          2   -1    0    0  501    0  0.00000000000E+00 -0.00000000000E+00 -0.24895100914E+02  0.24895100914E+02  0.00000000000E+00 0. -1.
         35    2    1    2    0    0  0.00000000000E+00  0.00000000000E+00  0.73679524407E+03  0.78658544589E+03  0.27540775591E+03 0.  0.
         25    1    3    3    0    0 -0.23302878816E+02 -0.21967246855E+01  0.18743623477E+03  0.22378604037E+03  0.12000000000E+03 0.  0.
         25    1    3    3    0    0  0.23302878816E+02  0.21967246855E+01  0.54935900930E+03  0.56279940553E+03  0.12000000000E+03 0.  0.
<mgrwt>
<rscale>  0 0.27540776E+03</rscale>
<asrwt>0</asrwt>
<pdfrwt beam="1">  1        2 0.38300161E-02 0.27540776E+03</pdfrwt>
<pdfrwt beam="2">  1       -2 0.11718311E+00 0.27540776E+03</pdfrwt>
<totfact> 0.13220232E+03</totfact>
</mgrwt>
</event>
<event>
 5    1  0.1139158E+001  0.2753550E+03  0.7818608E-02  0.1098253E+00
         -2   -1    0    0    0  501 -0.00000000000E+00  0.00000000000E+00  0.17926434893E+02  0.17926434893E+02  0.00000000000E+00 0.  1.
          2   -1    0    0  501    0  0.00000000000E+00 -0.00000000000E+00 -0.10573819222E+04  0.10573819222E+04  0.00000000000E+00 0.  1.
         35    2    1    2    0    0  0.00000000000E+00  0.00000000000E+00 -0.10394554873E+04  0.10753083571E+04  0.27535495772E+03 0.  0.
         25    1    3    3    0    0 -0.65031412901E+01  0.18363820620E+02 -0.26738090317E+03  0.29372107199E+03  0.12000000000E+03 0.  0.
         25    1    3    3    0    0  0.65031412901E+01 -0.18363820620E+02 -0.77207458415E+03  0.78158728511E+03  0.12000000000E+03 0.  0.
<mgrwt>
<rscale>  0 0.27535496E+03</rscale>
<asrwt>0</asrwt>
<pdfrwt beam="1">  1        2 0.16267412E+00 0.27535496E+03</pdfrwt>
<pdfrwt beam="2">  1       -2 0.27579134E-02 0.27535496E+03</pdfrwt>
<totfact> 0.11608527E+04</totfact>
</mgrwt>
</event>
<event>
 5    1  0.1139158E+001  0.2748239E+03  0.7818608E-02  0.1098550E+00
         -2   -1    0    0    0  501 -0.00000000000E+00  0.00000000000E+00  0.89057451427E+01  0.89057451427E+01  0.00000000000E+00 0. -1.
          2   -1    0    0  501    0  0.00000000000E+00 -0.00000000000E+00 -0.21202096404E+04  0.21202096404E+04  0.00000000000E+00 0. -1.
         35    2    1    2    0    0  0.00000000000E+00  0.00000000000E+00 -0.21113038953E+04  0.21291153856E+04  0.27482391968E+03 0.  0.
         25    1    3    3    0    0 -0.56174006796E+02 -0.65733739140E+01 -0.77812070307E+03  0.78934818479E+03  0.12000000000E+03 0.  0.
         25    1    3    3    0    0  0.56174006796E+02  0.65733739140E+01 -0.13331831922E+04  0.13397672008E+04  0.12000000000E+03 0.  0.
<mgrwt>
<rscale>  0 0.27482392E+03</rscale>
<asrwt>0</asrwt>
<pdfrwt beam="1">  1        2 0.32618605E+00 0.27482392E+03</pdfrwt>
<pdfrwt beam="2">  1       -2 0.13701149E-02 0.27482392E+03</pdfrwt>
<totfact> 0.86470295E+03</totfact>
</mgrwt>
</event>
<event>
 5    1  0.1139158E+001  0.2755007E+03  0.7818608E-02  0.1098172E+00
          2   -1    0    0  501    0  0.00000000000E+00  0.00000000000E+00  0.50158249703E+03  0.50158249703E+03  0.00000000000E+00 0.  1.
         -2   -1    0    0    0  501 -0.00000000000E+00 -0.00000000000E+00 -0.37830578756E+02  0.37830578756E+02  0.00000000000E+00 0.  1.
         35    2    1    2    0    0  0.00000000000E+00  0.00000000000E+00  0.46375191828E+03  0.53941307579E+03  0.27550067990E+03 0.  0.
         25    1    3    3    0    0 -0.23543860023E+02  0.55291356058E+02  0.29265749889E+03  0.32196251188E+03  0.12000000000E+03 0.  0.
         25    1    3    3    0    0  0.23543860023E+02 -0.55291356058E+02  0.17109441939E+03  0.21745056391E+03  0.12000000000E+03 0.  0.
<mgrwt>
<rscale>  0 0.27550068E+03</rscale>
<asrwt>0</asrwt>
<pdfrwt beam="1">  1        2 0.77166533E-01 0.27550068E+03</pdfrwt>
<pdfrwt beam="2">  1       -2 0.58200894E-02 0.27550068E+03</pdfrwt>
<totfact> 0.95675353E+03</totfact>
</mgrwt>
</event>
<event>
 5    1  0.1139158E+001  0.2748271E+03  0.7818608E-02  0.1098548E+00
         -2   -1    0    0    0  501 -0.00000000000E+00  0.00000000000E+00  0.87807003403E+01  0.87807003403E+01  0.00000000000E+00 0. -1.
          2   -1    0    0  501    0  0.00000000000E+00 -0.00000000000E+00 -0.21504527243E+04  0.21504527243E+04  0.00000000000E+00 0. -1.
         35    2    1    2    0    0  0.00000000000E+00  0.00000000000E+00 -0.21416720240E+04  0.21592334247E+04  0.27482707995E+03 0.  0.
         25    1    3    3    0    0 -0.53057474625E+02  0.37834436917E+02 -0.95015427917E+03  0.95991650390E+03  0.12000000000E+03 0.  0.
         25    1    3    3    0    0  0.53057474625E+02 -0.37834436917E+02 -0.11915177448E+04  0.11993169208E+04  0.12000000000E+03 0.  0.
<mgrwt>
<rscale>  0 0.27482708E+03</rscale>
<asrwt>0</asrwt>
<pdfrwt beam="1">  1        2 0.33083870E+00 0.27482708E+03</pdfrwt>
<pdfrwt beam="2">  1       -2 0.13508777E-02 0.27482708E+03</pdfrwt>
<totfact> 0.85077972E+03</totfact>
</mgrwt>
</event>
<event>
 5    1  0.1139158E+001  0.2761701E+03  0.7818608E-02  0.1097799E+00
         -1   -1    0    0    0  501 -0.00000000000E+00  0.00000000000E+00  0.32518514073E+03  0.32518514073E+03  0.00000000000E+00 0. -1.
          1   -1    0    0  501    0  0.00000000000E+00 -0.00000000000E+00 -0.58635781267E+02  0.58635781267E+02  0.00000000000E+00 0. -1.
         35    2    1    2    0    0  0.00000000000E+00  0.00000000000E+00  0.26654935947E+03  0.38382092200E+03  0.27617012716E+03 0.  0.
         25    1    3    3    0    0 -0.51778555732E+02 -0.96892315550E+01  0.19373627637E+03  0.23389879184E+03  0.12000000000E+03 0.  0.
         25    1    3    3    0    0  0.51778555732E+02  0.96892315550E+01  0.72813083094E+02  0.14992213016E+03  0.12000000000E+03 0.  0.
<mgrwt>
<rscale>  0 0.27617013E+03</rscale>
<asrwt>0</asrwt>
<pdfrwt beam="1">  1        1 0.90208896E-02 0.27617013E+03</pdfrwt>
<pdfrwt beam="2">  1       -1 0.50028482E-01 0.27617013E+03</pdfrwt>
<totfact> 0.30179111E+03</totfact>
</mgrwt>
</event>
<event>
 5    1  0.1139158E+001  0.2752563E+03  0.7818608E-02  0.1098308E+00
         -2   -1    0    0    0  501 -0.00000000000E+00  0.00000000000E+00  0.69977717709E+02  0.69977717709E+02  0.00000000000E+00 0. -1.
          2   -1    0    0  501    0  0.00000000000E+00 -0.00000000000E+00 -0.27067910121E+03  0.27067910121E+03  0.00000000000E+00 0. -1.
         35    2    1    2    0    0  0.00000000000E+00  0.00000000000E+00 -0.20070138350E+03  0.34065681892E+03  0.27525628592E+03 0.  0.
         25    1    3    3    0    0  0.66657029625E+02  0.37913549285E+00 -0.11261493835E+03  0.17755401342E+03  0.12000000000E+03 0.  0.
         25    1    3    3    0    0 -0.66657029625E+02 -0.37913549285E+00 -0.88086445157E+02  0.16310280550E+03  0.12000000000E+03 0.  0.
<mgrwt>
<rscale>  0 0.27525629E+03</rscale>
<asrwt>0</asrwt>
<pdfrwt beam="1">  1        2 0.41642940E-01 0.27525629E+03</pdfrwt>
<pdfrwt beam="2">  1       -2 0.10765802E-01 0.27525629E+03</pdfrwt>
<totfact> 0.71536775E+03</totfact>
</mgrwt>
</event>
<event>
 5    1  0.1139158E+001  0.2743736E+03  0.7818608E-02  0.1098802E+00
          2   -1    0    0  501    0  0.00000000000E+00  0.00000000000E+00  0.36717740017E+03  0.36717740017E+03  0.00000000000E+00 0.  1.
         -2   -1    0    0    0  501 -0.00000000000E+00 -0.00000000000E+00 -0.51256490473E+02  0.51256490473E+02  0.00000000000E+00 0.  1.
         35    2    1    2    0    0  0.00000000000E+00  0.00000000000E+00  0.31592090970E+03  0.41843389065E+03  0.27437364971E+03 0.  0.
         25    1    3    3    0    0 -0.22329867386E+02  0.30790941668E+02  0.74799422284E+02  0.14642970546E+03  0.12000000000E+03 0.  0.
         25    1    3    3    0    0  0.22329867386E+02 -0.30790941668E+02  0.24112148742E+03  0.27200418519E+03  0.12000000000E+03 0.  0.
<mgrwt>
<rscale>  0 0.27437365E+03</rscale>
<asrwt>0</asrwt>
<pdfrwt beam="1">  1        2 0.56488829E-01 0.27437365E+03</pdfrwt>
<pdfrwt beam="2">  1       -2 0.78856141E-02 0.27437365E+03</pdfrwt>
<totfact> 0.84214691E+03</totfact>
</mgrwt>
</event>
<event>
 5    1  0.1139158E+001  0.2742586E+03  0.7818608E-02  0.1098867E+00
         -2   -1    0    0    0  501 -0.00000000000E+00  0.00000000000E+00  0.85613938770E+01  0.85613938770E+01  0.00000000000E+00 0.  1.
          2   -1    0    0  501    0  0.00000000000E+00 -0.00000000000E+00 -0.21964234644E+04  0.21964234644E+04  0.00000000000E+00 0.  1.
         35    2    1    2    0    0  0.00000000000E+00  0.00000000000E+00 -0.21878620705E+04  0.22049848582E+04  0.27425861080E+03 0.  0.
         25    1    3    3    0    0 -0.61704828969E+02  0.23502220323E+02 -0.11476271134E+04  0.11557715310E+04  0.12000000000E+03 0.  0.
         25    1    3    3    0    0  0.61704828969E+02 -0.23502220323E+02 -0.10402349570E+04  0.10492133273E+04  0.12000000000E+03 0.  0.
<mgrwt>
<rscale>  0 0.27425861E+03</rscale>
<asrwt>0</asrwt>
<pdfrwt beam="1">  1        2 0.33791193E+00 0.27425861E+03</pdfrwt>
<pdfrwt beam="2">  1       -2 0.13171351E-02 0.27425861E+03</pdfrwt>
<totfact> 0.83452068E+03</totfact>
</mgrwt>
</event>
<event>
 5    1  0.1139158E+001  0.2747830E+03  0.7818608E-02  0.1098573E+00
          2   -1    0    0  501    0  0.00000000000E+00  0.00000000000E+00  0.12641859352E+03  0.12641859352E+03  0.00000000000E+00 0.  1.
         -2   -1    0    0    0  501 -0.00000000000E+00 -0.00000000000E+00 -0.14931684100E+03  0.14931684100E+03  0.00000000000E+00 0.  1.
         35    2    1    2    0    0  0.00000000000E+00  0.00000000000E+00 -0.22898247482E+02  0.27573543453E+03  0.27478300551E+03 0.  0.
         25    1    3    3    0    0  0.39521142891E+02  0.22116608462E+02  0.37969518554E+02  0.13376378226E+03  0.12000000000E+03 0.  0.
         25    1    3    3    0    0 -0.39521142891E+02 -0.22116608462E+02 -0.60867766036E+02  0.14197165227E+03  0.12000000000E+03 0.  0.
<mgrwt>
<rscale>  0 0.27478301E+03</rscale>
<asrwt>0</asrwt>
<pdfrwt beam="1">  1        2 0.19449015E-01 0.27478301E+03</pdfrwt>
<pdfrwt beam="2">  1       -2 0.22971821E-01 0.27478301E+03</pdfrwt>
<totfact> 0.47048457E+03</totfact>
</mgrwt>
</event>
<event>
 5    1  0.1139158E+001  0.2746251E+03  0.7818608E-02  0.1098661E+00
          2   -1    0    0  501    0  0.00000000000E+00  0.00000000000E+00  0.20491944452E+03  0.20491944452E+03  0.00000000000E+00 0. -1.
         -2   -1    0    0    0  501 -0.00000000000E+00 -0.00000000000E+00 -0.92010494979E+02  0.92010494979E+02  0.00000000000E+00 0. -1.
         35    2    1    2    0    0  0.00000000000E+00  0.00000000000E+00  0.11290894954E+03  0.29692993950E+03  0.27462512282E+03 0.  0.
         25    1    3    3    0    0  0.56070559664E+02  0.68562206047E+01  0.18016805837E+02  0.13384887267E+03  0.12000000000E+03 0.  0.
         25    1    3    3    0    0 -0.56070559664E+02 -0.68562206047E+01  0.94892143703E+02  0.16308106683E+03  0.12000000000E+03 0.  0.
<mgrwt>
<rscale>  0 0.27462512E+03</rscale>
<asrwt>0</asrwt>
<pdfrwt beam="1">  1        2 0.31526068E-01 0.27462512E+03</pdfrwt>
<pdfrwt beam="2">  1       -2 0.14155461E-01 0.27462512E+03</pdfrwt>
<totfact> 0.62085246E+03</totfact>
</mgrwt>
</event>
<event>
 5    1  0.1139158E+001  0.2752509E+03  0.7818608E-02  0.1098311E+00
         -2   -1    0    0    0  501 -0.00000000000E+00  0.00000000000E+00  0.15114494573E+03  0.15114494573E+03  0.00000000000E+00 0. -1.
          2   -1    0    0  501    0  0.00000000000E+00 -0.00000000000E+00 -0.12531522066E+03  0.12531522066E+03  0.00000000000E+00 0. -1.
         35    2    1    2    0    0  0.00000000000E+00  0.00000000000E+00  0.25829725067E+02  0.27646016639E+03  0.27525088356E+03 0.  0.
         25    1    3    3    0    0  0.29413149350E+02  0.55835365295E+02 -0.10811810218E+02  0.13601329572E+03  0.12000000000E+03 0.  0.
         25    1    3    3    0    0 -0.29413149350E+02 -0.55835365295E+02  0.36641535285E+02  0.14044687067E+03  0.12000000000E+03 0.  0.
<mgrwt>
<rscale>  0 0.27525088E+03</rscale>
<asrwt>0</asrwt>
<pdfrwt beam="1">  1        2 0.19279265E-01 0.27525088E+03</pdfrwt>
<pdfrwt beam="2">  1       -2 0.23253068E-01 0.27525088E+03</pdfrwt>
<totfact> 0.46529325E+03</totfact>
</mgrwt>
</event>
<event>
 5    1  0.1139158E+001  0.2746666E+03  0.7818608E-02  0.1098638E+00
          2   -1    0    0  501    0  0.00000000000E+00  0.00000000000E+00  0.17202155921E+02  0.17202155921E+02  0.00000000000E+00 0. -1.
         -2   -1    0    0    0  501 -0.00000000000E+00 -0.00000000000E+00 -0.10963997660E+04  0.10963997660E+04  0.00000000000E+00 0. -1.
         35    2    1    2    0    0  0.00000000000E+00  0.00000000000E+00 -0.10791976101E+04  0.11136019219E+04  0.27466663231E+03 0.  0.
         25    1    3    3    0    0 -0.30992122951E+02  0.49740760717E+01 -0.30059042177E+03  0.32517665165E+03  0.12000000000E+03 0.  0.
         25    1    3    3    0    0  0.30992122951E+02 -0.49740760717E+01 -0.77860718832E+03  0.78842527028E+03  0.12000000000E+03 0.  0.
<mgrwt>
<rscale>  0 0.27466663E+03</rscale>
<asrwt>0</asrwt>
<pdfrwt beam="1">  1        2 0.26464847E-02 0.27466663E+03</pdfrwt>
<pdfrwt beam="2">  1       -2 0.16867694E+00 0.27466663E+03</pdfrwt>
<totfact> 0.86504341E+02</totfact>
</mgrwt>
</event>
<event>
 5    1  0.1139158E+001  0.2757592E+03  0.7818608E-02  0.1098028E+00
          2   -1    0    0  501    0  0.00000000000E+00  0.00000000000E+00  0.77154060371E+03  0.77154060371E+03  0.00000000000E+00 0.  1.
         -2   -1    0    0    0  501 -0.00000000000E+00 -0.00000000000E+00 -0.24640034258E+02  0.24640034258E+02  0.00000000000E+00 0.  1.
         35    2    1    2    0    0  0.00000000000E+00  0.00000000000E+00  0.74690056945E+03  0.79618063797E+03  0.27575922038E+03 0.  0.
         25    1    3    3    0    0 -0.16725369280E+02 -0.56866781674E+02  0.46908774735E+03  0.48780824466E+03  0.12000000000E+03 0.  0.
         25    1    3    3    0    0  0.16725369280E+02  0.56866781674E+02  0.27781282210E+03  0.30837239331E+03  0.12000000000E+03 0.  0.
<mgrwt>
<rscale>  0 0.27575922E+03</rscale>
<asrwt>0</asrwt>
<pdfrwt beam="1">  1        2 0.11869854E+00 0.27575922E+03</pdfrwt>
<pdfrwt beam="2">  1       -2 0.37907751E-02 0.27575922E+03</pdfrwt>
<totfact> 0.11036242E+04</totfact>
</mgrwt>
</event>
<event>
 5    1  0.1139158E+001  0.2751848E+03  0.7818608E-02  0.1098348E+00
         -2   -1    0    0    0  501 -0.00000000000E+00  0.00000000000E+00  0.46904395221E+02  0.46904395221E+02  0.00000000000E+00 0.  1.
          2   -1    0    0  501    0  0.00000000000E+00 -0.00000000000E+00 -0.40362244050E+03  0.40362244050E+03  0.00000000000E+00 0.  1.
         35    2    1    2    0    0  0.00000000000E+00  0.00000000000E+00 -0.35671804528E+03  0.45052683572E+03  0.27518478497E+03 0.  0.
         25    1    3    3    0    0 -0.45545040161E+02  0.31664801133E+02 -0.11591707778E+03  0.17582314761E+03  0.12000000000E+03 0.  0.
         25    1    3    3    0    0  0.45545040161E+02 -0.31664801133E+02 -0.24080096749E+03  0.27470368811E+03  0.12000000000E+03 0.  0.
<mgrwt>
<rscale>  0 0.27518478E+03</rscale>
<asrwt>0</asrwt>
<pdfrwt beam="1">  1        2 0.62095762E-01 0.27518478E+03</pdfrwt>
<pdfrwt beam="2">  1       -2 0.72160605E-02 0.27518478E+03</pdfrwt>
<totfact> 0.87267071E+03</totfact>
</mgrwt>
</event>
<event>
 5    1  0.1139158E+001  0.2759942E+03  0.7818608E-02  0.1097897E+00
          4   -1    0    0  501    0  0.00000000000E+00  0.00000000000E+00  0.10517691115E+02  0.10517691115E+02  0.00000000000E+00 0.  1.
         -4   -1    0    0    0  501 -0.00000000000E+00 -0.00000000000E+00 -0.18105872165E+04  0.18105872165E+04  0.00000000000E+00 0.  1.
         35    2    1    2    0    0  0.00000000000E+00  0.00000000000E+00 -0.18000695254E+04  0.18211049076E+04  0.27599418168E+03 0.  0.
         25    1    3    3    0    0  0.41907451730E+02  0.46303106298E+02 -0.72017871872E+03  0.73277390719E+03  0.12000000000E+03 0.  0.
         25    1    3    3    0    0 -0.41907451730E+02 -0.46303106298E+02 -0.10798908067E+04  0.10883310004E+04  0.12000000000E+03 0.  0.
<mgrwt>
<rscale>  0 0.27599418E+03</rscale>
<asrwt>0</asrwt>
<pdfrwt beam="1">  1        4 0.16181077E-02 0.27599418E+03</pdfrwt>
<pdfrwt beam="2">  1       -4 0.27855164E+00 0.27599418E+03</pdfrwt>
<totfact> 0.12794575E+02</totfact>
</mgrwt>
</event>
<event>
 5    1  0.1139158E+001  0.2745885E+03  0.7818608E-02  0.1098682E+00
          1   -1    0    0  501    0  0.00000000000E+00  0.00000000000E+00  0.86888193866E+03  0.86888193866E+03  0.00000000000E+00 0. -1.
         -1   -1    0    0    0  501 -0.00000000000E+00 -0.00000000000E+00 -0.21694208367E+02  0.21694208367E+02  0.00000000000E+00 0. -1.
         35    2    1    2    0    0  0.00000000000E+00  0.00000000000E+00  0.84718773029E+03  0.89057614702E+03  0.27458846169E+03 0.  0.
         25    1    3    3    0    0 -0.37942262307E+02 -0.27533787901E+02  0.57750539089E+03  0.59170110804E+03  0.12000000000E+03 0.  0.
         25    1    3    3    0    0  0.37942262307E+02  0.27533787901E+02  0.26968233940E+03  0.29887503899E+03  0.12000000000E+03 0.  0.
<mgrwt>
<rscale>  0 0.27458846E+03</rscale>
<asrwt>0</asrwt>
<pdfrwt beam="1">  1        1 0.13367412E+00 0.27458846E+03</pdfrwt>
<pdfrwt beam="2">  1       -1 0.33375712E-02 0.27458846E+03</pdfrwt>
<totfact> 0.65023222E+03</totfact>
</mgrwt>
</event>
<event>
 5    1  0.1139158E+001  0.2742483E+03  0.7818608E-02  0.1098873E+00
          3   -1    0    0  501    0  0.00000000000E+00  0.00000000000E+00  0.28165994910E+03  0.28165994910E+03  0.00000000000E+00 0. -1.
         -3   -1    0    0    0  501 -0.00000000000E+00 -0.00000000000E+00 -0.66757901495E+02  0.66757901495E+02  0.00000000000E+00 0. -1.
         35    2    1    2    0    0  0.00000000000E+00  0.00000000000E+00  0.21490204761E+03  0.34841785060E+03  0.27424826080E+03 0.  0.
         25    1    3    3    0    0  0.92592518351E+01 -0.65323908307E+02  0.11644165936E+03  0.17975429557E+03  0.12000000000E+03 0.  0.
         25    1    3    3    0    0 -0.92592518351E+01  0.65323908307E+02  0.98460388244E+02  0.16866355503E+03  0.12000000000E+03 0.  0.
<mgrwt>
<rscale>  0 0.27424826E+03</rscale>
<asrwt>0</asrwt>
<pdfrwt beam="1">  1        3 0.43332299E-01 0.27424826E+03</pdfrwt>
<pdfrwt beam="2">  1       -3 0.10270447E-01 0.27424826E+03</pdfrwt>
<totfact> 0.95302101E+02</totfact>
</mgrwt>
</event>
<event>
 5    1  0.1139158E+001  0.2745162E+03  0.7818608E-02  0.1098722E+00
         -1   -1    0    0    0  501 -0.00000000000E+00  0.00000000000E+00  0.13432591015E+02  0.13432591015E+02  0.00000000000E+00 0.  1.
          1   -1    0    0  501    0  0.00000000000E+00 -0.00000000000E+00 -0.14025433521E+04  0.14025433521E+04  0.00000000000E+00 0.  1.
         35    2    1    2    0    0  0.00000000000E+00  0.00000000000E+00 -0.13891107611E+04  0.14159759431E+04  0.27451623799E+03 0.  0.
         25    1    3    3    0    0  0.57362475468E+02  0.32879233119E+02 -0.73718172136E+03  0.74980556671E+03  0.12000000000E+03 0.  0.
         25    1    3    3    0    0 -0.57362475468E+02 -0.32879233119E+02 -0.65192903969E+03  0.66617037637E+03  0.12000000000E+03 0.  0.
<mgrwt>
<rscale>  0 0.27451624E+03</rscale>
<asrwt>0</asrwt>
<pdfrwt beam="1">  1        1 0.21577589E+00 0.27451624E+03</pdfrwt>
<pdfrwt beam="2">  1       -1 0.20665526E-02 0.27451624E+03</pdfrwt>
<totfact> 0.54331524E+03</totfact>
</mgrwt>
</event>
<event>
 5    1  0.1139158E+001  0.2750482E+03  0.7818608E-02  0.1098425E+00
         -2   -1    0    0    0  501 -0.00000000000E+00  0.00000000000E+00  0.47234944596E+02  0.47234944596E+02  0.00000000000E+00 0. -1.
          2   -1    0    0  501    0  0.00000000000E+00 -0.00000000000E+00 -0.40040023125E+03  0.40040023125E+03  0.00000000000E+00 0. -1.
         35    2    1    2    0    0  0.00000000000E+00  0.00000000000E+00 -0.35316528666E+03  0.44763517585E+03  0.27504823388E+03 0.  0.
         25    1    3    3    0    0  0.59737927231E+02  0.30726088868E+02 -0.17725416833E+03  0.22434739285E+03  0.12000000000E+03 0.  0.
         25    1    3    3    0    0 -0.59737927231E+02 -0.30726088868E+02 -0.17591111833E+03  0.22328778300E+03  0.12000000000E+03 0.  0.
<mgrwt>
<rscale>  0 0.27504823E+03</rscale>
<asrwt>0</asrwt>
<pdfrwt beam="1">  1        2 0.61600039E-01 0.27504823E+03</pdfrwt>
<pdfrwt beam="2">  1       -2 0.72669142E-02 0.27504823E+03</pdfrwt>
<totfact> 0.87075175E+03</totfact>
</mgrwt>
</event>
<event>
 5    1  0.1139158E+001  0.2742155E+03  0.7818608E-02  0.1098891E+00
          2   -1    0    0  501    0  0.00000000000E+00  0.00000000000E+00  0.24047620184E+03  0.24047620184E+03  0.00000000000E+00 0. -1.
         -2   -1    0    0    0  501 -0.00000000000E+00 -0.00000000000E+00 -0.78172112102E+02  0.78172112102E+02  0.00000000000E+00 0. -1.
         35    2    1    2    0    0  0.00000000000E+00  0.00000000000E+00  0.16230408974E+03  0.31864831395E+03  0.27421548175E+03 0.  0.
         25    1    3    3    0    0 -0.28493286668E+02  0.21370175750E+02  0.14616359055E+03  0.19243790427E+03  0.12000000000E+03 0.  0.
         25    1    3    3    0    0  0.28493286668E+02 -0.21370175750E+02  0.16140499192E+02  0.12621040968E+03  0.12000000000E+03 0.  0.
<mgrwt>
<rscale>  0 0.27421548E+03</rscale>
<asrwt>0</asrwt>
<pdfrwt beam="1">  1        2 0.36996338E-01 0.27421548E+03</pdfrwt>
<pdfrwt beam="2">  1       -2 0.12026479E-01 0.27421548E+03</pdfrwt>
<totfact> 0.68021085E+03</totfact>
</mgrwt>
</event>
<event>
 5    1  0.1139158E+001  0.2747793E+03  0.7818608E-02  0.1098575E+00
          2   -1    0    0  501    0  0.00000000000E+00  0.00000000000E+00  0.30829957472E+04  0.30829957472E+04  0.00000000000E+00 0. -1.
         -2   -1    0    0    0  501 -0.00000000000E+00 -0.00000000000E+00 -0.61225872892E+01  0.61225872892E+01  0.00000000000E+00 0. -1.
         35    2    1    2    0    0  0.00000000000E+00  0.00000000000E+00  0.30768731599E+04  0.30891183345E+04  0.27477926104E+03 0.  0.
         25    1    3    3    0    0  0.60448904488E+02 -0.16286508904E+02  0.12732092023E+04  0.12803831432E+04  0.12000000000E+03 0.  0.
         25    1    3    3    0    0 -0.60448904488E+02  0.16286508904E+02  0.18036639576E+04  0.18087351913E+04  0.12000000000E+03 0.  0.
<mgrwt>
<rscale>  0 0.27477926E+03</rscale>
<asrwt>0</asrwt>
<pdfrwt beam="1">  1        2 0.47430580E+00 0.27477926E+03</pdfrwt>
<pdfrwt beam="2">  1       -2 0.94193897E-03 0.27477926E+03</pdfrwt>
<totfact> 0.43228022E+03</totfact>
</mgrwt>
</event>
<event>
 5    1  0.1139158E+001  0.2738014E+03  0.7818608E-02  0.1099123E+00
         -2   -1    0    0    0  501 -0.00000000000E+00  0.00000000000E+00  0.50839953128E+02  0.50839953128E+02  0.00000000000E+00 0.  1.
          2   -1    0    0  501    0  0.00000000000E+00 -0.00000000000E+00 -0.36864312175E+03  0.36864312175E+03  0.00000000000E+00 0.  1.
         35    2    1    2    0    0  0.00000000000E+00  0.00000000000E+00 -0.31780316862E+03  0.41948307488E+03  0.27380138079E+03 0.  0.
         25    1    3    3    0    0 -0.30358336751E+02 -0.33276985722E+02 -0.23258148555E+03  0.26556192086E+03  0.12000000000E+03 0.  0.
         25    1    3    3    0    0  0.30358336751E+02  0.33276985722E+02 -0.85221683067E+02  0.15392115402E+03  0.12000000000E+03 0.  0.
<mgrwt>
<rscale>  0 0.27380138E+03</rscale>
<asrwt>0</asrwt>
<pdfrwt beam="1">  1        2 0.56714328E-01 0.27380138E+03</pdfrwt>
<pdfrwt beam="2">  1       -2 0.78215311E-02 0.27380138E+03</pdfrwt>
<totfact> 0.84919841E+03</totfact>
</mgrwt>
</event>
<event>
 5    1  0.1139158E+001  0.2756916E+03  0.7818608E-02  0.1098066E+00
          1   -1    0    0  501    0  0.00000000000E+00  0.00000000000E+00  0.21966369341E+04  0.21966369341E+04  0.00000000000E+00 0. -1.
         -1   -1    0    0    0  501 -0.00000000000E+00 -0.00000000000E+00 -0.86502507457E+01  0.86502507457E+01  0.00000000000E+00 0. -1.
         35    2    1    2    0    0  0.00000000000E+00  0.00000000000E+00  0.21879866834E+04  0.22052871848E+04  0.27569156880E+03 0.  0.
         25    1    3    3    0    0  0.27070698040E+02  0.60565537439E+02  0.98074072883E+03  0.99027944753E+03  0.12000000000E+03 0.  0.
         25    1    3    3    0    0 -0.27070698040E+02 -0.60565537439E+02  0.12072459545E+04  0.12150077373E+04  0.12000000000E+03 0.  0.
<mgrwt>
<rscale>  0 0.27569157E+03</rscale>
<asrwt>0</asrwt>
<pdfrwt beam="1">  1        1 0.33794370E+00 0.27569157E+03</pdfrwt>
<pdfrwt beam="2">  1       -1 0.13308096E-02 0.27569157E+03</pdfrwt>
<totfact> 0.31211476E+03</totfact>
</mgrwt>
</event>
<event>
 5    1  0.1139158E+001  0.2773950E+03  0.7818608E-02  0.1097120E+00
          2   -1    0    0  501    0  0.00000000000E+00  0.00000000000E+00  0.61614728097E+03  0.61614728097E+03  0.00000000000E+00 0. -1.
         -2   -1    0    0    0  501 -0.00000000000E+00 -0.00000000000E+00 -0.31221429267E+02  0.31221429267E+02  0.00000000000E+00 0. -1.
         35    2    1    2    0    0  0.00000000000E+00  0.00000000000E+00  0.58492585170E+03  0.64736871024E+03  0.27739501618E+03 0.  0.
         25    1    3    3    0    0 -0.44000017476E+02 -0.53796368776E+02  0.28631143426E+03  0.31812621429E+03  0.12000000000E+03 0.  0.
         25    1    3    3    0    0  0.44000017476E+02  0.53796368776E+02  0.29861441744E+03  0.32924249595E+03  0.12000000000E+03 0.  0.
<mgrwt>
<rscale>  0 0.27739502E+03</rscale>
<asrwt>0</asrwt>
<pdfrwt beam="1">  1        2 0.94791880E-01 0.27739502E+03</pdfrwt>
<pdfrwt beam="2">  1       -2 0.48032973E-02 0.27739502E+03</pdfrwt>
<totfact> 0.10137476E+04</totfact>
</mgrwt>
</event>
<event>
 5    1  0.1139158E+001  0.2752937E+03  0.7818608E-02  0.1098288E+00
         -2   -1    0    0    0  501 -0.00000000000E+00  0.00000000000E+00  0.27951334267E+03  0.27951334267E+03  0.00000000000E+00 0. -1.
          2   -1    0    0  501    0  0.00000000000E+00 -0.00000000000E+00 -0.67784426962E+02  0.67784426962E+02  0.00000000000E+00 0. -1.
         35    2    1    2    0    0  0.00000000000E+00  0.00000000000E+00  0.21172891570E+03  0.34729776963E+03  0.27529367418E+03 0.  0.
         25    1    3    3    0    0  0.27966094103E+02  0.48667379514E+02  0.58728320008E+02  0.14491249711E+03  0.12000000000E+03 0.  0.
         25    1    3    3    0    0 -0.27966094103E+02 -0.48667379514E+02  0.15300059569E+03  0.20238527252E+03  0.12000000000E+03 0.  0.
<mgrwt>
<rscale>  0 0.27529367E+03</rscale>
<asrwt>0</asrwt>
<pdfrwt beam="1">  1        2 0.10428374E-01 0.27529367E+03</pdfrwt>
<pdfrwt beam="2">  1       -2 0.43002052E-01 0.27529367E+03</pdfrwt>
<totfact> 0.31353728E+03</totfact>
</mgrwt>
</event>
<event>
 5    1  0.1139158E+001  0.2752921E+03  0.7818608E-02  0.1098288E+00
          4   -1    0    0  501    0  0.00000000000E+00  0.00000000000E+00  0.35439999832E+03  0.35439999832E+03  0.00000000000E+00 0. -1.
         -4   -1    0    0    0  501 -0.00000000000E+00 -0.00000000000E+00 -0.53460582921E+02  0.53460582921E+02  0.00000000000E+00 0. -1.
         35    2    1    2    0    0  0.00000000000E+00  0.00000000000E+00  0.30093941540E+03  0.40786058124E+03  0.27529206670E+03 0.  0.
         25    1    3    3    0    0  0.24108140856E+02  0.75201194320E+01  0.24309569819E+03  0.27227426087E+03  0.12000000000E+03 0.  0.
         25    1    3    3    0    0 -0.24108140856E+02 -0.75201194320E+01  0.57843717208E+02  0.13558632037E+03  0.12000000000E+03 0.  0.
<mgrwt>
<rscale>  0 0.27529207E+03</rscale>
<asrwt>0</asrwt>
<pdfrwt beam="1">  1        4 0.54523075E-01 0.27529207E+03</pdfrwt>
<pdfrwt beam="2">  1       -4 0.82247053E-02 0.27529207E+03</pdfrwt>
<totfact> 0.64096025E+02</totfact>
</mgrwt>
</event>
<event>
 5    1  0.1139158E+001  0.2747152E+03  0.7818608E-02  0.1098611E+00
          4   -1    0    0  501    0  0.00000000000E+00  0.00000000000E+00  0.27166948347E+03  0.27166948347E+03  0.00000000000E+00 0.  1.
         -4   -1    0    0    0  501 -0.00000000000E+00 -0.00000000000E+00 -0.69448766188E+02  0.69448766188E+02  0.00000000000E+00 0.  1.
         35    2    1    2    0    0  0.00000000000E+00  0.00000000000E+00  0.20222071728E+03  0.34111824966E+03  0.27471520116E+03 0.  0.
         25    1    3    3    0    0 -0.98244023592E+01  0.16000796930E+02  0.21460633313E+02  0.12334140897E+03  0.12000000000E+03 0.  0.
         25    1    3    3    0    0  0.98244023592E+01 -0.16000796930E+02  0.18076008397E+03  0.21777684069E+03  0.12000000000E+03 0.  0.
<mgrwt>
<rscale>  0 0.27471520E+03</rscale>
<asrwt>0</asrwt>
<pdfrwt beam="1">  1        4 0.41795305E-01 0.27471520E+03</pdfrwt>
<pdfrwt beam="2">  1       -4 0.10684426E-01 0.27471520E+03</pdfrwt>
<totfact> 0.70844973E+02</totfact>
</mgrwt>
</event>
<event>
 5    1  0.1139158E+001  0.2747245E+03  0.7818608E-02  0.1098606E+00
         -1   -1    0    0    0  501 -0.00000000000E+00  0.00000000000E+00  0.17376565263E+02  0.17376565263E+02  0.00000000000E+00 0.  1.
          1   -1    0    0  501    0  0.00000000000E+00 -0.00000000000E+00 -0.10858523215E+04  0.10858523215E+04  0.00000000000E+00 0.  1.
         35    2    1    2    0    0  0.00000000000E+00  0.00000000000E+00 -0.10684757563E+04  0.11032288868E+04  0.27472447093E+03 0.  0.
         25    1    3    3    0    0 -0.24535163043E+02  0.18110101056E+01 -0.78383405364E+03  0.79334801798E+03  0.12000000000E+03 0.  0.
         25    1    3    3    0    0  0.24535163043E+02 -0.18110101056E+01 -0.28464170261E+03  0.30988086880E+03  0.12000000000E+03 0.  0.
<mgrwt>
<rscale>  0 0.27472447E+03</rscale>
<asrwt>0</asrwt>
<pdfrwt beam="1">  1        1 0.16705423E+00 0.27472447E+03</pdfrwt>
<pdfrwt beam="2">  1       -1 0.26733173E-02 0.27472447E+03</pdfrwt>
<totfact> 0.61773511E+03</totfact>
</mgrwt>
</event>
<event>
 5    1  0.1139158E+001  0.2755466E+03  0.7818608E-02  0.1098146E+00
         -2   -1    0    0    0  501 -0.00000000000E+00  0.00000000000E+00  0.61621364465E+03  0.61621364465E+03  0.00000000000E+00 0. -1.
          2   -1    0    0  501    0  0.00000000000E+00 -0.00000000000E+00 -0.30803402640E+02  0.30803402640E+02  0.00000000000E+00 0. -1.
         35    2    1    2    0    0  0.00000000000E+00  0.00000000000E+00  0.58541024201E+03  0.64701704729E+03  0.27554656237E+03 0.  0.
         25    1    3    3    0    0 -0.37517297644E+02 -0.56190284171E+02  0.28314351865E+03  0.31485734518E+03  0.12000000000E+03 0.  0.
         25    1    3    3    0    0  0.37517297644E+02  0.56190284171E+02  0.30226672336E+03  0.33215970211E+03  0.12000000000E+03 0.  0.
<mgrwt>
<rscale>  0 0.27554656E+03</rscale>
<asrwt>0</asrwt>
<pdfrwt beam="1">  1        2 0.47389855E-02 0.27554656E+03</pdfrwt>
<pdfrwt beam="2">  1       -2 0.94802090E-01 0.27554656E+03</pdfrwt>
<totfact> 0.16371597E+03</totfact>
</mgrwt>
</event>
<event>
 5    1  0.1139158E+001  0.2754814E+03  0.7818608E-02  0.1098183E+00
         -2   -1    0    0    0  501 -0.00000000000E+00  0.00000000000E+00  0.10178338766E+02  0.10178338766E+02  0.00000000000E+00 0. -1.
          2   -1    0    0  501    0  0.00000000000E+00 -0.00000000000E+00 -0.18640079389E+04  0.18640079389E+04  0.00000000000E+00 0. -1.
         35    2    1    2    0    0  0.00000000000E+00  0.00000000000E+00 -0.18538296002E+04  0.18741862777E+04  0.27548142780E+03 0.  0.
         25    1    3    3    0    0 -0.96113792411E+01  0.65284627272E+02 -0.10273744359E+04  0.10364616215E+04  0.12000000000E+03 0.  0.
         25    1    3    3    0    0  0.96113792411E+01 -0.65284627272E+02 -0.82645516425E+03  0.83772465625E+03  0.12000000000E+03 0.  0.
<mgrwt>
<rscale>  0 0.27548143E+03</rscale>
<asrwt>0</asrwt>
<pdfrwt beam="1">  1        2 0.28677059E+00 0.27548143E+03</pdfrwt>
<pdfrwt beam="2">  1       -2 0.15658975E-02 0.27548143E+03</pdfrwt>
<totfact> 0.97029651E+03</totfact>
</mgrwt>
</event>
<event>
 5    1  0.1139158E+001  0.2763203E+03  0.7818608E-02  0.1097716E+00
         -2   -1    0    0    0  501 -0.00000000000E+00  0.00000000000E+00  0.42305156759E+03  0.42305156759E+03  0.00000000000E+00 0.  1.
          2   -1    0    0  501    0  0.00000000000E+00 -0.00000000000E+00 -0.45120333904E+02  0.45120333904E+02  0.00000000000E+00 0.  1.
         35    2    1    2    0    0  0.00000000000E+00  0.00000000000E+00  0.37793123368E+03  0.46817190149E+03  0.27632030680E+03 0.  0.
         25    1    3    3    0    0 -0.47557604383E+02 -0.35585526049E+02  0.24667598470E+03  0.28067257940E+03  0.12000000000E+03 0.  0.
         25    1    3    3    0    0  0.47557604383E+02  0.35585526049E+02  0.13125524898E+03  0.18749932209E+03  0.12000000000E+03 0.  0.
<mgrwt>
<rscale>  0 0.27632031E+03</rscale>
<asrwt>0</asrwt>
<pdfrwt beam="1">  1        2 0.69415901E-02 0.27632031E+03</pdfrwt>
<pdfrwt beam="2">  1       -2 0.65084854E-01 0.27632031E+03</pdfrwt>
<totfact> 0.22706289E+03</totfact>
</mgrwt>
</event>
<event>
 5    1  0.1139158E+001  0.2748710E+03  0.7818608E-02  0.1098524E+00
         -1   -1    0    0    0  501 -0.00000000000E+00  0.00000000000E+00  0.10000235689E+03  0.10000235689E+03  0.00000000000E+00 0. -1.
          1   -1    0    0  501    0  0.00000000000E+00 -0.00000000000E+00 -0.18888076463E+03  0.18888076463E+03  0.00000000000E+00 0. -1.
         35    2    1    2    0    0  0.00000000000E+00  0.00000000000E+00 -0.88878407735E+02  0.28888312152E+03  0.27487103619E+03 0.  0.
         25    1    3    3    0    0 -0.62457909295E+02 -0.20865152860E+02 -0.57404042704E+02  0.14843035120E+03  0.12000000000E+03 0.  0.
         25    1    3    3    0    0  0.62457909295E+02  0.20865152860E+02 -0.31474365031E+02  0.14045277032E+03  0.12000000000E+03 0.  0.
<mgrwt>
<rscale>  0 0.27487104E+03</rscale>
<asrwt>0</asrwt>
<pdfrwt beam="1">  1        1 0.29058579E-01 0.27487104E+03</pdfrwt>
<pdfrwt beam="2">  1       -1 0.15384978E-01 0.27487104E+03</pdfrwt>
<totfact> 0.48355993E+03</totfact>
</mgrwt>
</event>
<event>
 5    1  0.1139158E+001  0.2759071E+03  0.7818608E-02  0.1097946E+00
         -2   -1    0    0    0  501 -0.00000000000E+00  0.00000000000E+00  0.22244026953E+03  0.22244026953E+03  0.00000000000E+00 0.  1.
          2   -1    0    0  501    0  0.00000000000E+00 -0.00000000000E+00 -0.85556390910E+02  0.85556390910E+02  0.00000000000E+00 0.  1.
         35    2    1    2    0    0  0.00000000000E+00  0.00000000000E+00  0.13688387862E+03  0.30799666044E+03  0.27590713405E+03 0.  0.
         25    1    3    3    0    0 -0.37318897240E+02 -0.49628869763E+02  0.37356050037E+02  0.14018273531E+03  0.12000000000E+03 0.  0.
         25    1    3    3    0    0  0.37318897240E+02  0.49628869763E+02  0.99527828586E+02  0.16781392513E+03  0.12000000000E+03 0.  0.
<mgrwt>
<rscale>  0 0.27590713E+03</rscale>
<asrwt>0</asrwt>
<pdfrwt beam="1">  1        2 0.13162522E-01 0.27590713E+03</pdfrwt>
<pdfrwt beam="2">  1       -2 0.34221580E-01 0.27590713E+03</pdfrwt>
<totfact> 0.36385242E+03</totfact>
</mgrwt>
</event>
<event>
 5    1  0.1139158E+001  0.2747290E+03  0.7818608E-02  0.1098603E+00
         -1   -1    0    0    0  501 -0.00000000000E+00  0.00000000000E+00  0.14321515965E+03  0.14321515965E+03  0.00000000000E+00 0. -1.
          1   -1    0    0  501    0  0.00000000000E+00 -0.00000000000E+00 -0.13175283936E+03  0.13175283936E+03  0.00000000000E+00 0. -1.
         35    2    1    2    0    0  0.00000000000E+00  0.00000000000E+00  0.11462320297E+02  0.27496799901E+03  0.27472898590E+03 0.  0.
         25    1    3    3    0    0 -0.81739646033E+01  0.66345450536E+02  0.64183568554E+01  0.13751264600E+03  0.12000000000E+03 0.  0.
         25    1    3    3    0    0  0.81739646033E+01 -0.66345450536E+02  0.50439634417E+01  0.13745535301E+03  0.12000000000E+03 0.  0.
<mgrwt>
<rscale>  0 0.27472899E+03</rscale>
<asrwt>0</asrwt>
<pdfrwt beam="1">  1        1 0.20269668E-01 0.27472899E+03</pdfrwt>
<pdfrwt beam="2">  1       -1 0.22033101E-01 0.27472899E+03</pdfrwt>
<totfact> 0.42866441E+03</totfact>
</mgrwt>
</event>
<event>
 5    1  0.1139158E+001  0.2746846E+03  0.7818608E-02  0.1098628E+00
         -2   -1    0    0    0  501 -0.00000000000E+00  0.00000000000E+00  0.44540443175E+02  0.44540443175E+02  0.00000000000E+00 0.  1.
          2   -1    0    0  501    0  0.00000000000E+00 -0.00000000000E+00 -0.42350074077E+03  0.42350074077E+03  0.00000000000E+00 0.  1.
         35    2    1    2    0    0  0.00000000000E+00  0.00000000000E+00 -0.37896029760E+03  0.46804118395E+03  0.27468462410E+03 0.  0.
         25    1    3    3    0    0  0.50949054331E+02 -0.38335298283E+02 -0.22345233117E+03  0.26152694993E+03  0.12000000000E+03 0.  0.
         25    1    3    3    0    0 -0.50949054331E+02  0.38335298283E+02 -0.15550796642E+03  0.20651423402E+03  0.12000000000E+03 0.  0.
<mgrwt>
<rscale>  0 0.27468462E+03</rscale>
<asrwt>0</asrwt>
<pdfrwt beam="1">  1        2 0.65153958E-01 0.27468462E+03</pdfrwt>
<pdfrwt beam="2">  1       -2 0.68523761E-02 0.27468462E+03</pdfrwt>
<totfact> 0.89710470E+03</totfact>
</mgrwt>
</event>
<event>
 5    1  0.1139158E+001  0.2747168E+03  0.7818608E-02  0.1098610E+00
         -2   -1    0    0    0  501 -0.00000000000E+00  0.00000000000E+00  0.27037584618E+02  0.27037584618E+02  0.00000000000E+00 0.  1.
          2   -1    0    0  501    0  0.00000000000E+00 -0.00000000000E+00 -0.69781861999E+03  0.69781861999E+03  0.00000000000E+00 0.  1.
         35    2    1    2    0    0  0.00000000000E+00  0.00000000000E+00 -0.67078103537E+03  0.72485620461E+03  0.27471679953E+03 0.  0.
         25    1    3    3    0    0 -0.33776829720E+02  0.32387006435E+02 -0.46131188121E+03  0.47895557640E+03  0.12000000000E+03 0.  0.
         25    1    3    3    0    0  0.33776829720E+02 -0.32387006435E+02 -0.20946915416E+03  0.24590062821E+03  0.12000000000E+03 0.  0.
<mgrwt>
<rscale>  0 0.27471680E+03</rscale>
<asrwt>0</asrwt>
<pdfrwt beam="1">  1        2 0.10735670E+00 0.27471680E+03</pdfrwt>
<pdfrwt beam="2">  1       -2 0.41596287E-02 0.27471680E+03</pdfrwt>
<totfact> 0.10861798E+04</totfact>
</mgrwt>
</event>
<event>
 5    1  0.1139158E+001  0.2746577E+03  0.7818608E-02  0.1098643E+00
          2   -1    0    0  501    0  0.00000000000E+00  0.00000000000E+00  0.29951263723E+04  0.29951263723E+04  0.00000000000E+00 0. -1.
         -2   -1    0    0    0  501 -0.00000000000E+00 -0.00000000000E+00 -0.62966318344E+01  0.62966318344E+01  0.00000000000E+00 0. -1.
         35    2    1    2    0    0  0.00000000000E+00  0.00000000000E+00  0.29888297405E+04  0.30014230041E+04  0.27465766375E+03 0.  0.
         25    1    3    3    0    0  0.56692629080E+02 -0.18091483649E+02  0.11633433400E+04  0.11710290700E+04  0.12000000000E+03 0.  0.
         25    1    3    3    0    0 -0.56692629080E+02  0.18091483649E+02  0.18254864004E+04  0.18303939342E+04  0.12000000000E+03 0.  0.
<mgrwt>
<rscale>  0 0.27465766E+03</rscale>
<asrwt>0</asrwt>
<pdfrwt beam="1">  1        2 0.46078753E+00 0.27465766E+03</pdfrwt>
<pdfrwt beam="2">  1       -2 0.96871498E-03 0.27465766E+03</pdfrwt>
<totfact> 0.46836590E+03</totfact>
</mgrwt>
</event>
<event>
 5    1  0.1139158E+001  0.2761518E+03  0.7818608E-02  0.1097809E+00
         -2   -1    0    0    0  501 -0.00000000000E+00  0.00000000000E+00  0.11697994933E+03  0.11697994933E+03  0.00000000000E+00 0. -1.
          2   -1    0    0  501    0  0.00000000000E+00 -0.00000000000E+00 -0.16297630847E+03  0.16297630847E+03  0.00000000000E+00 0. -1.
         35    2    1    2    0    0  0.00000000000E+00  0.00000000000E+00 -0.45996359142E+02  0.27995625781E+03  0.27615184452E+03 0.  0.
         25    1    3    3    0    0 -0.34620492408E+02 -0.36043231742E+02 -0.70193448627E+02  0.14773223507E+03  0.12000000000E+03 0.  0.
         25    1    3    3    0    0  0.34620492408E+02  0.36043231742E+02  0.24197089485E+02  0.13222402274E+03  0.12000000000E+03 0.  0.
<mgrwt>
<rscale>  0 0.27615184E+03</rscale>
<asrwt>0</asrwt>
<pdfrwt beam="1">  1        2 0.25073278E-01 0.27615184E+03</pdfrwt>
<pdfrwt beam="2">  1       -2 0.17996915E-01 0.27615184E+03</pdfrwt>
<totfact> 0.53632229E+03</totfact>
</mgrwt>
</event>
<event>
 5    1  0.1139158E+001  0.2747099E+03  0.7818608E-02  0.1098614E+00
          1   -1    0    0  501    0  0.00000000000E+00  0.00000000000E+00  0.75028025321E+03  0.75028025321E+03  0.00000000000E+00 0.  1.
         -1   -1    0    0    0  501 -0.00000000000E+00 -0.00000000000E+00 -0.25145772561E+02  0.25145772561E+02  0.00000000000E+00 0.  1.
         35    2    1    2    0    0  0.00000000000E+00  0.00000000000E+00  0.72513448065E+03  0.77542602577E+03  0.27470985861E+03 0.  0.
         25    1    3    3    0    0  0.51191321824E+02  0.32246204749E+02  0.44270471576E+03  0.46265303901E+03  0.12000000000E+03 0.  0.
         25    1    3    3    0    0 -0.51191321824E+02 -0.32246204749E+02  0.28242976489E+03  0.31277298676E+03  0.12000000000E+03 0.  0.
<mgrwt>
<rscale>  0 0.27470986E+03</rscale>
<asrwt>0</asrwt>
<pdfrwt beam="1">  1        1 0.11542771E+00 0.27470986E+03</pdfrwt>
<pdfrwt beam="2">  1       -1 0.38685810E-02 0.27470986E+03</pdfrwt>
<totfact> 0.65556230E+03</totfact>
</mgrwt>
</event>
<event>
 5    1  0.1139158E+001  0.2734579E+03  0.7818608E-02  0.1099317E+00
         -3   -1    0    0    0  501 -0.00000000000E+00  0.00000000000E+00  0.52152812594E+03  0.52152812594E+03  0.00000000000E+00 0.  1.
          3   -1    0    0  501    0  0.00000000000E+00 -0.00000000000E+00 -0.35846201894E+02  0.35846201894E+02  0.00000000000E+00 0.  1.
         35    2    1    2    0    0  0.00000000000E+00  0.00000000000E+00  0.48568192404E+03  0.55737432783E+03  0.27345787607E+03 0.  0.
         25    1    3    3    0    0  0.29072599311E+02 -0.13984774775E+02  0.35911055078E+03  0.38000154952E+03  0.12000000000E+03 0.  0.
         25    1    3    3    0    0 -0.29072599311E+02  0.13984774775E+02  0.12657137327E+03  0.17737277831E+03  0.12000000000E+03 0.  0.
<mgrwt>
<rscale>  0 0.27345788E+03</rscale>
<asrwt>0</asrwt>
<pdfrwt beam="1">  1        3 0.55148007E-02 0.27345788E+03</pdfrwt>
<pdfrwt beam="2">  1       -3 0.80235091E-01 0.27345788E+03</pdfrwt>
<totfact> 0.73291515E+02</totfact>
</mgrwt>
</event>
<event>
 5    1  0.1139158E+001  0.2744479E+03  0.7818608E-02  0.1098761E+00
         -3   -1    0    0    0  501 -0.00000000000E+00  0.00000000000E+00  0.57885070032E+02  0.57885070032E+02  0.00000000000E+00 0. -1.
          3   -1    0    0  501    0  0.00000000000E+00 -0.00000000000E+00 -0.32530684312E+03  0.32530684312E+03  0.00000000000E+00 0. -1.
         35    2    1    2    0    0  0.00000000000E+00  0.00000000000E+00 -0.26742177309E+03  0.38319191315E+03  0.27444787772E+03 0.  0.
         25    1    3    3    0    0  0.18476574559E+02 -0.63839995673E+02 -0.13883725849E+03  0.19517354636E+03  0.12000000000E+03 0.  0.
         25    1    3    3    0    0 -0.18476574559E+02  0.63839995673E+02 -0.12858451460E+03  0.18801836679E+03  0.12000000000E+03 0.  0.
<mgrwt>
<rscale>  0 0.27444788E+03</rscale>
<asrwt>0</asrwt>
<pdfrwt beam="1">  1        3 0.50047207E-01 0.27444788E+03</pdfrwt>
<pdfrwt beam="2">  1       -3 0.89053953E-02 0.27444788E+03</pdfrwt>
<totfact> 0.90681428E+02</totfact>
</mgrwt>
</event>
<event>
 5    1  0.1139158E+001  0.2749252E+03  0.7818608E-02  0.1098493E+00
          2   -1    0    0  501    0  0.00000000000E+00  0.00000000000E+00  0.96959488764E+03  0.96959488764E+03  0.00000000000E+00 0.  1.
         -2   -1    0    0    0  501 -0.00000000000E+00 -0.00000000000E+00 -0.19488513907E+02  0.19488513907E+02  0.00000000000E+00 0.  1.
         35    2    1    2    0    0  0.00000000000E+00  0.00000000000E+00  0.95010637373E+03  0.98908340155E+03  0.27492517856E+03 0.  0.
         25    1    3    3    0    0  0.41061890232E+02  0.52881726918E+02  0.46187991635E+03  0.48188755223E+03  0.12000000000E+03 0.  0.
         25    1    3    3    0    0 -0.41061890232E+02 -0.52881726918E+02  0.48822645738E+03  0.50719584931E+03  0.12000000000E+03 0.  0.
<mgrwt>
<rscale>  0 0.27492518E+03</rscale>
<asrwt>0</asrwt>
<pdfrwt beam="1">  1        2 0.14916841E+00 0.27492518E+03</pdfrwt>
<pdfrwt beam="2">  1       -2 0.29982337E-02 0.27492518E+03</pdfrwt>
<totfact> 0.11595593E+04</totfact>
</mgrwt>
</event>
<event>
 5    1  0.1139158E+001  0.2753192E+03  0.7818608E-02  0.1098273E+00
         -2   -1    0    0    0  501 -0.00000000000E+00  0.00000000000E+00  0.28566313841E+02  0.28566313841E+02  0.00000000000E+00 0. -1.
          2   -1    0    0  501    0  0.00000000000E+00 -0.00000000000E+00 -0.66337453981E+03  0.66337453981E+03  0.00000000000E+00 0. -1.
         35    2    1    2    0    0  0.00000000000E+00  0.00000000000E+00 -0.63480822597E+03  0.69194085365E+03  0.27531919874E+03 0.  0.
         25    1    3    3    0    0 -0.16093291629E+02  0.64830979850E+02 -0.29381247067E+03  0.32432671476E+03  0.12000000000E+03 0.  0.
         25    1    3    3    0    0  0.16093291629E+02 -0.64830979850E+02 -0.34099575530E+03  0.36761413889E+03  0.12000000000E+03 0.  0.
<mgrwt>
<rscale>  0 0.27531920E+03</rscale>
<asrwt>0</asrwt>
<pdfrwt beam="1">  1        2 0.10205761E+00 0.27531920E+03</pdfrwt>
<pdfrwt beam="2">  1       -2 0.43948180E-02 0.27531920E+03</pdfrwt>
<totfact> 0.10625369E+04</totfact>
</mgrwt>
</event>
<event>
 5    1  0.1139158E+001  0.2751804E+03  0.7818608E-02  0.1098351E+00
         -2   -1    0    0    0  501 -0.00000000000E+00  0.00000000000E+00  0.75231820754E+02  0.75231820754E+02  0.00000000000E+00 0.  1.
          2   -1    0    0  501    0  0.00000000000E+00 -0.00000000000E+00 -0.25163640538E+03  0.25163640538E+03  0.00000000000E+00 0.  1.
         35    2    1    2    0    0  0.00000000000E+00  0.00000000000E+00 -0.17640458463E+03  0.32686822613E+03  0.27518041314E+03 0.  0.
         25    1    3    3    0    0 -0.34434832331E+02  0.20412136393E+01 -0.19542486450E+02  0.12637971755E+03  0.12000000000E+03 0.  0.
         25    1    3    3    0    0  0.34434832331E+02 -0.20412136393E+01 -0.15686209817E+03  0.20048850858E+03  0.12000000000E+03 0.  0.
<mgrwt>
<rscale>  0 0.27518041E+03</rscale>
<asrwt>0</asrwt>
<pdfrwt beam="1">  1        2 0.38713293E-01 0.27518041E+03</pdfrwt>
<pdfrwt beam="2">  1       -2 0.11574126E-01 0.27518041E+03</pdfrwt>
<totfact> 0.68902513E+03</totfact>
</mgrwt>
</event>
<event>
 5    1  0.1139158E+001  0.2755139E+03  0.7818608E-02  0.1098165E+00
          1   -1    0    0  501    0  0.00000000000E+00  0.00000000000E+00  0.35548995951E+03  0.35548995951E+03  0.00000000000E+00 0. -1.
         -1   -1    0    0    0  501 -0.00000000000E+00 -0.00000000000E+00 -0.53382597439E+02  0.53382597439E+02  0.00000000000E+00 0. -1.
         35    2    1    2    0    0  0.00000000000E+00  0.00000000000E+00  0.30210736207E+03  0.40887255695E+03  0.27551390094E+03 0.  0.
         25    1    3    3    0    0 -0.14939438209E+02 -0.18245928109E+02  0.24515697463E+03  0.27396722964E+03  0.12000000000E+03 0.  0.
         25    1    3    3    0    0  0.14939438209E+02  0.18245928109E+02  0.56950387438E+02  0.13490532731E+03  0.12000000000E+03 0.  0.
<mgrwt>
<rscale>  0 0.27551390E+03</rscale>
<asrwt>0</asrwt>
<pdfrwt beam="1">  1        1 0.54690761E-01 0.27551390E+03</pdfrwt>
<pdfrwt beam="2">  1       -1 0.82127075E-02 0.27551390E+03</pdfrwt>
<totfact> 0.57980993E+03</totfact>
</mgrwt>
</event>
<event>
 5    1  0.1139158E+001  0.2734241E+03  0.7818608E-02  0.1099336E+00
          2   -1    0    0  501    0  0.00000000000E+00  0.00000000000E+00  0.58123565429E+03  0.58123565429E+03  0.00000000000E+00 0. -1.
         -2   -1    0    0    0  501 -0.00000000000E+00 -0.00000000000E+00 -0.32155943022E+02  0.32155943022E+02  0.00000000000E+00 0. -1.
         35    2    1    2    0    0  0.00000000000E+00  0.00000000000E+00  0.54907971127E+03  0.61339159732E+03  0.27342407050E+03 0.  0.
         25    1    3    3    0    0  0.51938573339E+01  0.47983616201E+01  0.42062068722E+03  0.43746058445E+03  0.12000000000E+03 0.  0.
         25    1    3    3    0    0 -0.51938573339E+01 -0.47983616201E+01  0.12845902405E+03  0.17593101287E+03  0.12000000000E+03 0.  0.
<mgrwt>
<rscale>  0 0.27342407E+03</rscale>
<asrwt>0</asrwt>
<pdfrwt beam="1">  1        2 0.89420862E-01 0.27342407E+03</pdfrwt>
<pdfrwt beam="2">  1       -2 0.49470686E-02 0.27342407E+03</pdfrwt>
<totfact> 0.10367203E+04</totfact>
</mgrwt>
</event>
<event>
 4    1  0.1139158E+001  0.3180709E+03  0.7818608E-02  0.1076541E+00
          2   -1    0    0  501    0  0.00000000000E+00  0.00000000000E+00  0.67187723759E+03  0.67187723759E+03  0.00000000000E+00 0.  1.
         -2   -1    0    0    0  501 -0.00000000000E+00 -0.00000000000E+00 -0.37644189536E+02  0.37644189536E+02  0.00000000000E+00 0.  1.
         25    1    1    2    0    0 -0.16570164674E+02 -0.10241870010E+03  0.29186781492E+03  0.33219118272E+03  0.12000000000E+03 0.  0.
         25    1    1    2    0    0  0.16570164674E+02  0.10241870010E+03  0.34236523313E+03  0.37733024441E+03  0.12000000000E+03 0.  0.
<mgrwt>
<rscale>  0 0.31807090E+03</rscale>
<asrwt>0</asrwt>
<pdfrwt beam="1">  1        2 0.10336572E+00 0.31807090E+03</pdfrwt>
<pdfrwt beam="2">  1       -2 0.57914143E-02 0.31807090E+03</pdfrwt>
<totfact> 0.69031245E+03</totfact>
</mgrwt>
</event>
<event>
 5    1  0.1139158E+001  0.2747813E+03  0.7818608E-02  0.1098574E+00
          2   -1    0    0  501    0  0.00000000000E+00  0.00000000000E+00  0.79252853843E+02  0.79252853843E+02  0.00000000000E+00 0. -1.
         -2   -1    0    0    0  501 -0.00000000000E+00 -0.00000000000E+00 -0.23817671813E+03  0.23817671813E+03  0.00000000000E+00 0. -1.
         35    2    1    2    0    0  0.00000000000E+00  0.00000000000E+00 -0.15892386428E+03  0.31742957197E+03  0.27478125577E+03 0.  0.
         25    1    3    3    0    0  0.28668128099E+02 -0.12566219073E+02 -0.14776994557E+03  0.19291378448E+03  0.12000000000E+03 0.  0.
         25    1    3    3    0    0 -0.28668128099E+02  0.12566219073E+02 -0.11153918713E+02  0.12451578749E+03  0.12000000000E+03 0.  0.
<mgrwt>
<rscale>  0 0.27478126E+03</rscale>
<asrwt>0</asrwt>
<pdfrwt beam="1">  1        2 0.12192747E-01 0.27478126E+03</pdfrwt>
<pdfrwt beam="2">  1       -2 0.36642572E-01 0.27478126E+03</pdfrwt>
<totfact> 0.35125125E+03</totfact>
</mgrwt>
</event>
<event>
 5    1  0.1139158E+001  0.2761863E+03  0.7818608E-02  0.1097790E+00
         -1   -1    0    0    0  501 -0.00000000000E+00  0.00000000000E+00  0.23644539195E+02  0.23644539195E+02  0.00000000000E+00 0.  1.
          1   -1    0    0  501    0  0.00000000000E+00 -0.00000000000E+00 -0.80651680732E+03  0.80651680732E+03  0.00000000000E+00 0.  1.
         35    2    1    2    0    0  0.00000000000E+00  0.00000000000E+00 -0.78287226813E+03  0.83016134652E+03  0.27618630134E+03 0.  0.
         25    1    3    3    0    0  0.84954410423E+00 -0.66607234878E+02 -0.43726577410E+03  0.45829968651E+03  0.12000000000E+03 0.  0.
         25    1    3    3    0    0 -0.84954410423E+00  0.66607234878E+02 -0.34560649403E+03  0.37186166000E+03  0.12000000000E+03 0.  0.
<mgrwt>
<rscale>  0 0.27618630E+03</rscale>
<asrwt>0</asrwt>
<pdfrwt beam="1">  1        1 0.12407951E+00 0.27618630E+03</pdfrwt>
<pdfrwt beam="2">  1       -1 0.36376214E-02 0.27618630E+03</pdfrwt>
<totfact> 0.64357156E+03</totfact>
</mgrwt>
</event>
<event>
 5    1  0.1139158E+001  0.2753464E+03  0.7818608E-02  0.1098258E+00
          1   -1    0    0  501    0  0.00000000000E+00  0.00000000000E+00  0.18003490661E+04  0.18003490661E+04  0.00000000000E+00 0. -1.
         -1   -1    0    0    0  501 -0.00000000000E+00 -0.00000000000E+00 -0.10527908265E+02  0.10527908265E+02  0.00000000000E+00 0. -1.
         35    2    1    2    0    0  0.00000000000E+00  0.00000000000E+00  0.17898211578E+04  0.18108769743E+04  0.27534639865E+03 0.  0.
         25    1    3    3    0    0  0.15623917605E+02 -0.51762934077E+02  0.62935413067E+03  0.64296977374E+03  0.12000000000E+03 0.  0.
         25    1    3    3    0    0 -0.15623917605E+02  0.51762934077E+02  0.11604670271E+04  0.11679072006E+04  0.12000000000E+03 0.  0.
<mgrwt>
<rscale>  0 0.27534640E+03</rscale>
<asrwt>0</asrwt>
<pdfrwt beam="1">  1        1 0.27697653E+00 0.27534640E+03</pdfrwt>
<pdfrwt beam="2">  1       -1 0.16196796E-02 0.27534640E+03</pdfrwt>
<totfact> 0.42442481E+03</totfact>
</mgrwt>
</event>
<event>
 5    1  0.1139158E+001  0.2759912E+03  0.7818608E-02  0.1097899E+00
          1   -1    0    0  501    0  0.00000000000E+00  0.00000000000E+00  0.20169303821E+03  0.20169303821E+03  0.00000000000E+00 0.  1.
         -1   -1    0    0    0  501 -0.00000000000E+00 -0.00000000000E+00 -0.94414678159E+02  0.94414678159E+02  0.00000000000E+00 0.  1.
         35    2    1    2    0    0  0.00000000000E+00  0.00000000000E+00  0.10727836005E+03  0.29610771637E+03  0.27599118312E+03 0.  0.
         25    1    3    3    0    0 -0.40404528795E+02 -0.28139222511E+02  0.10417257858E+03  0.16636185836E+03  0.12000000000E+03 0.  0.
         25    1    3    3    0    0  0.40404528795E+02  0.28139222511E+02  0.31057814731E+01  0.12974585800E+03  0.12000000000E+03 0.  0.
<mgrwt>
<rscale>  0 0.27599118E+03</rscale>
<asrwt>0</asrwt>
<pdfrwt beam="1">  1        1 0.31029698E-01 0.27599118E+03</pdfrwt>
<pdfrwt beam="2">  1       -1 0.14525335E-01 0.27599118E+03</pdfrwt>
<totfact> 0.48770072E+03</totfact>
</mgrwt>
</event>
<event>
 5    1  0.1139158E+001  0.2719384E+03  0.7818608E-02  0.1100175E+00
          2   -1    0    0  501    0  0.00000000000E+00  0.00000000000E+00  0.31123141997E+03  0.31123141997E+03  0.00000000000E+00 0.  1.
         -2   -1    0    0    0  501 -0.00000000000E+00 -0.00000000000E+00 -0.59401542431E+02  0.59401542431E+02  0.00000000000E+00 0.  1.
         35    2    1    2    0    0  0.00000000000E+00  0.00000000000E+00  0.25182987754E+03  0.37063296240E+03  0.27193842244E+03 0.  0.
         25    1    3    3    0    0 -0.35005740548E+02  0.51576038513E+02  0.10653751050E+03  0.17215031445E+03  0.12000000000E+03 0.  0.
         25    1    3    3    0    0  0.35005740548E+02 -0.51576038513E+02  0.14529236704E+03  0.19848264796E+03  0.12000000000E+03 0.  0.
<mgrwt>
<rscale>  0 0.27193842E+03</rscale>
<asrwt>0</asrwt>
<pdfrwt beam="1">  1        2 0.47881756E-01 0.27193842E+03</pdfrwt>
<pdfrwt beam="2">  1       -2 0.91386990E-02 0.27193842E+03</pdfrwt>
<totfact> 0.79826740E+03</totfact>
</mgrwt>
</event>
<event>
 5    1  0.1139158E+001  0.2745181E+03  0.7818608E-02  0.1098721E+00
         -2   -1    0    0    0  501 -0.00000000000E+00  0.00000000000E+00  0.45232963373E+02  0.45232963373E+02  0.00000000000E+00 0. -1.
          2   -1    0    0  501    0  0.00000000000E+00 -0.00000000000E+00 -0.41651156855E+03  0.41651156855E+03  0.00000000000E+00 0. -1.
         35    2    1    2    0    0  0.00000000000E+00  0.00000000000E+00 -0.37127860518E+03  0.46174453193E+03  0.27451814166E+03 0.  0.
         25    1    3    3    0    0  0.16220524935E+02  0.56061395588E+02 -0.23972781715E+03  0.27436364887E+03  0.12000000000E+03 0.  0.
         25    1    3    3    0    0 -0.16220524935E+02 -0.56061395588E+02 -0.13155078803E+03  0.18738088306E+03  0.12000000000E+03 0.  0.
<mgrwt>
<rscale>  0 0.27451814E+03</rscale>
<asrwt>0</asrwt>
<pdfrwt beam="1">  1        2 0.64078707E-01 0.27451814E+03</pdfrwt>
<pdfrwt beam="2">  1       -2 0.69589170E-02 0.27451814E+03</pdfrwt>
<totfact> 0.89198679E+03</totfact>
</mgrwt>
</event>
<event>
 5    1  0.1139158E+001  0.2723410E+03  0.7818608E-02  0.1099947E+00
          1   -1    0    0  501    0  0.00000000000E+00  0.00000000000E+00  0.58659924534E+02  0.58659924534E+02  0.00000000000E+00 0.  1.
         -1   -1    0    0    0  501 -0.00000000000E+00 -0.00000000000E+00 -0.31609995141E+03  0.31609995141E+03  0.00000000000E+00 0.  1.
         35    2    1    2    0    0  0.00000000000E+00  0.00000000000E+00 -0.25744002688E+03  0.37475987595E+03  0.27234095759E+03 0.  0.
         25    1    3    3    0    0 -0.35709916929E+02 -0.46145677393E+02 -0.91343149908E+02  0.16170402823E+03  0.12000000000E+03 0.  0.
         25    1    3    3    0    0  0.35709916929E+02  0.46145677393E+02 -0.16609687697E+03  0.21305584772E+03  0.12000000000E+03 0.  0.
<mgrwt>
<rscale>  0 0.27234096E+03</rscale>
<asrwt>0</asrwt>
<pdfrwt beam="1">  1        1 0.90246037E-02 0.27234096E+03</pdfrwt>
<pdfrwt beam="2">  1       -1 0.48630762E-01 0.27234096E+03</pdfrwt>
<totfact> 0.31768345E+03</totfact>
</mgrwt>
</event>
<event>
 5    1  0.1139158E+001  0.2761605E+03  0.7818608E-02  0.1097805E+00
         -1   -1    0    0    0  501 -0.00000000000E+00  0.00000000000E+00  0.12107689498E+02  0.12107689498E+02  0.00000000000E+00 0.  1.
          1   -1    0    0  501    0  0.00000000000E+00 -0.00000000000E+00 -0.15747151367E+04  0.15747151367E+04  0.00000000000E+00 0.  1.
         35    2    1    2    0    0  0.00000000000E+00  0.00000000000E+00 -0.15626074472E+04  0.15868228262E+04  0.27616054695E+03 0.  0.
         25    1    3    3    0    0 -0.37861880655E+02 -0.39111758851E+02 -0.54418672837E+03  0.55991289235E+03  0.12000000000E+03 0.  0.
         25    1    3    3    0    0  0.37861880655E+02  0.39111758851E+02 -0.10184207189E+04  0.10269099339E+04  0.12000000000E+03 0.  0.
<mgrwt>
<rscale>  0 0.27616055E+03</rscale>
<asrwt>0</asrwt>
<pdfrwt beam="1">  1        1 0.24226379E+00 0.27616055E+03</pdfrwt>
<pdfrwt beam="2">  1       -1 0.18627220E-02 0.27616055E+03</pdfrwt>
<totfact> 0.48601496E+03</totfact>
</mgrwt>
</event>
<event>
 5    1  0.1139158E+001  0.2756718E+03  0.7818608E-02  0.1098077E+00
          2   -1    0    0  501    0  0.00000000000E+00  0.00000000000E+00  0.81882524869E+03  0.81882524869E+03  0.00000000000E+00 0.  1.
         -2   -1    0    0    0  501 -0.00000000000E+00 -0.00000000000E+00 -0.23202433994E+02  0.23202433994E+02  0.00000000000E+00 0.  1.
         35    2    1    2    0    0  0.00000000000E+00  0.00000000000E+00  0.79562281470E+03  0.84202768269E+03  0.27567182508E+03 0.  0.
         25    1    3    3    0    0  0.65913750823E+02 -0.22689674255E+01  0.34961598675E+03  0.37547451172E+03  0.12000000000E+03 0.  0.
         25    1    3    3    0    0 -0.65913750823E+02  0.22689674255E+01  0.44600682795E+03  0.46655317097E+03  0.12000000000E+03 0.  0.
<mgrwt>
<rscale>  0 0.27567183E+03</rscale>
<asrwt>0</asrwt>
<pdfrwt beam="1">  1        2 0.12597309E+00 0.27567183E+03</pdfrwt>
<pdfrwt beam="2">  1       -2 0.35696059E-02 0.27567183E+03</pdfrwt>
<totfact> 0.11198309E+04</totfact>
</mgrwt>
</event>
<event>
 5    1  0.1139158E+001  0.2768801E+03  0.7818608E-02  0.1097405E+00
          3   -1    0    0  501    0  0.00000000000E+00  0.00000000000E+00  0.20826190145E+02  0.20826190145E+02  0.00000000000E+00 0.  1.
         -3   -1    0    0    0  501 -0.00000000000E+00 -0.00000000000E+00 -0.92026692291E+03  0.92026692291E+03  0.00000000000E+00 0.  1.
         35    2    1    2    0    0  0.00000000000E+00  0.00000000000E+00 -0.89944073276E+03  0.94109311305E+03  0.27688014679E+03 0.  0.
         25    1    3    3    0    0  0.91184769343E+00  0.62218219620E+02 -0.55133130160E+03  0.56766023504E+03  0.12000000000E+03 0.  0.
         25    1    3    3    0    0 -0.91184769343E+00 -0.62218219620E+02 -0.34810943116E+03  0.37343287801E+03  0.12000000000E+03 0.  0.
<mgrwt>
<rscale>  0 0.27688015E+03</rscale>
<asrwt>0</asrwt>
<pdfrwt beam="1">  1        3 0.32040302E-02 0.27688015E+03</pdfrwt>
<pdfrwt beam="2">  1       -3 0.14157949E+00 0.27688015E+03</pdfrwt>
<totfact> 0.46106790E+02</totfact>
</mgrwt>
</event>
<event>
 5    1  0.1139158E+001  0.2741874E+03  0.7818608E-02  0.1098907E+00
          1   -1    0    0  501    0  0.00000000000E+00  0.00000000000E+00  0.99797823603E+03  0.99797823603E+03  0.00000000000E+00 0.  1.
         -1   -1    0    0    0  501 -0.00000000000E+00 -0.00000000000E+00 -0.18832751343E+02  0.18832751343E+02  0.00000000000E+00 0.  1.
         35    2    1    2    0    0  0.00000000000E+00  0.00000000000E+00  0.97914548469E+03  0.10168109874E+04  0.27418735175E+03 0.  0.
         25    1    3    3    0    0 -0.44105718207E+02 -0.47712282942E+02  0.44080980461E+03  0.46144887059E+03  0.12000000000E+03 0.  0.
         25    1    3    3    0    0  0.44105718207E+02  0.47712282942E+02  0.53833568008E+03  0.55536211679E+03  0.12000000000E+03 0.  0.
<mgrwt>
<rscale>  0 0.27418735E+03</rscale>
<asrwt>0</asrwt>
<pdfrwt beam="1">  1        1 0.15353507E+00 0.27418735E+03</pdfrwt>
<pdfrwt beam="2">  1       -1 0.28973471E-02 0.27418735E+03</pdfrwt>
<totfact> 0.63681483E+03</totfact>
</mgrwt>
</event>
<event>
 5    1  0.1139158E+001  0.2749585E+03  0.7818608E-02  0.1098475E+00
         -1   -1    0    0    0  501 -0.00000000000E+00  0.00000000000E+00  0.90446265121E+01  0.90446265121E+01  0.00000000000E+00 0. -1.
          1   -1    0    0  501    0  0.00000000000E+00 -0.00000000000E+00 -0.20896992567E+04  0.20896992567E+04  0.00000000000E+00 0. -1.
         35    2    1    2    0    0  0.00000000000E+00  0.00000000000E+00 -0.20806546302E+04  0.20987438832E+04  0.27495853723E+03 0.  0.
         25    1    3    3    0    0  0.64536611317E+02 -0.91934106975E+01 -0.11612694959E+04  0.11692717114E+04  0.12000000000E+03 0.  0.
         25    1    3    3    0    0 -0.64536611317E+02  0.91934106975E+01 -0.91938513427E+03  0.92947217179E+03  0.12000000000E+03 0.  0.
<mgrwt>
<rscale>  0 0.27495854E+03</rscale>
<asrwt>0</asrwt>
<pdfrwt beam="1">  1        1 0.32149231E+00 0.27495854E+03</pdfrwt>
<pdfrwt beam="2">  1       -1 0.13914805E-02 0.27495854E+03</pdfrwt>
<totfact> 0.34345606E+03</totfact>
</mgrwt>
</event>
<event>
 5    1  0.1139158E+001  0.2741304E+03  0.7818608E-02  0.1098939E+00
         -1   -1    0    0    0  501 -0.00000000000E+00  0.00000000000E+00  0.40493461550E+02  0.40493461550E+02  0.00000000000E+00 0.  1.
          1   -1    0    0  501    0  0.00000000000E+00 -0.00000000000E+00 -0.46394827874E+03  0.46394827874E+03  0.00000000000E+00 0.  1.
         35    2    1    2    0    0  0.00000000000E+00  0.00000000000E+00 -0.42345481719E+03  0.50444174029E+03  0.27413041996E+03 0.  0.
         25    1    3    3    0    0  0.17269585649E+02 -0.31427082148E+02 -0.10925600483E+03  0.16620100683E+03  0.12000000000E+03 0.  0.
         25    1    3    3    0    0 -0.17269585649E+02  0.31427082148E+02 -0.31419881236E+03  0.33824073346E+03  0.12000000000E+03 0.  0.
<mgrwt>
<rscale>  0 0.27413042E+03</rscale>
<asrwt>0</asrwt>
<pdfrwt beam="1">  1        1 0.71376659E-01 0.27413042E+03</pdfrwt>
<pdfrwt beam="2">  1       -1 0.62297632E-02 0.27413042E+03</pdfrwt>
<totfact> 0.62633636E+03</totfact>
</mgrwt>
</event>
<event>
 5    1  0.1139158E+001  0.2720239E+03  0.7818608E-02  0.1100127E+00
         -2   -1    0    0    0  501 -0.00000000000E+00  0.00000000000E+00  0.81080036162E+01  0.81080036162E+01  0.00000000000E+00 0. -1.
          2   -1    0    0  501    0  0.00000000000E+00 -0.00000000000E+00 -0.22816041959E+04  0.22816041959E+04  0.00000000000E+00 0. -1.
         35    2    1    2    0    0  0.00000000000E+00  0.00000000000E+00 -0.22734961923E+04  0.22897121995E+04  0.27202393329E+03 0.  0.
         25    1    3    3    0    0 -0.68548240127E+01  0.63258588085E+02 -0.10768622633E+04  0.10853943853E+04  0.12000000000E+03 0.  0.
         25    1    3    3    0    0  0.68548240127E+01 -0.63258588085E+02 -0.11966339290E+04  0.12043178142E+04  0.12000000000E+03 0.  0.
<mgrwt>
<rscale>  0 0.27202393E+03</rscale>
<asrwt>0</asrwt>
<pdfrwt beam="1">  1        2 0.35101647E+00 0.27202393E+03</pdfrwt>
<pdfrwt beam="2">  1       -2 0.12473836E-02 0.27202393E+03</pdfrwt>
<totfact> 0.81366735E+03</totfact>
</mgrwt>
</event>
<event>
 5    1  0.1139158E+001  0.2732982E+03  0.7818608E-02  0.1099407E+00
         -2   -1    0    0    0  501 -0.00000000000E+00  0.00000000000E+00  0.20078807514E+02  0.20078807514E+02  0.00000000000E+00 0.  1.
          2   -1    0    0  501    0  0.00000000000E+00 -0.00000000000E+00 -0.92998456809E+03  0.92998456809E+03  0.00000000000E+00 0.  1.
         35    2    1    2    0    0  0.00000000000E+00  0.00000000000E+00 -0.90990576058E+03  0.95006337561E+03  0.27329823369E+03 0.  0.
         25    1    3    3    0    0 -0.64033587882E+02 -0.18703283731E+01 -0.50016903602E+03  0.51833663106E+03  0.12000000000E+03 0.  0.
         25    1    3    3    0    0  0.64033587882E+02  0.18703283731E+01 -0.40973672456E+03  0.43172674455E+03  0.12000000000E+03 0.  0.
<mgrwt>
<rscale>  0 0.27329823E+03</rscale>
<asrwt>0</asrwt>
<pdfrwt beam="1">  1        2 0.14307458E+00 0.27329823E+03</pdfrwt>
<pdfrwt beam="2">  1       -2 0.30890467E-02 0.27329823E+03</pdfrwt>
<totfact> 0.11743402E+04</totfact>
</mgrwt>
</event>
<event>
 5    1  0.1139158E+001  0.2751821E+03  0.7818608E-02  0.1098350E+00
         -2   -1    0    0    0  501 -0.00000000000E+00  0.00000000000E+00  0.16249034380E+02  0.16249034380E+02  0.00000000000E+00 0.  1.
          2   -1    0    0  501    0  0.00000000000E+00 -0.00000000000E+00 -0.11650724675E+04  0.11650724675E+04  0.00000000000E+00 0.  1.
         35    2    1    2    0    0  0.00000000000E+00  0.00000000000E+00 -0.11488234331E+04  0.11813215018E+04  0.27518214026E+03 0.  0.
         25    1    3    3    0    0 -0.37241149320E+02 -0.55120042609E+02 -0.53017633301E+03  0.54764227958E+03  0.12000000000E+03 0.  0.
         25    1    3    3    0    0  0.37241149320E+02  0.55120042609E+02 -0.61864710007E+03  0.63367922226E+03  0.12000000000E+03 0.  0.
<mgrwt>
<rscale>  0 0.27518214E+03</rscale>
<asrwt>0</asrwt>
<pdfrwt beam="1">  1        2 0.17924193E+00 0.27518214E+03</pdfrwt>
<pdfrwt beam="2">  1       -2 0.24998513E-02 0.27518214E+03</pdfrwt>
<totfact> 0.11613808E+04</totfact>
</mgrwt>
</event>
<event>
 5    1  0.1139158E+001  0.2741984E+03  0.7818608E-02  0.1098900E+00
         -4   -1    0    0    0  501 -0.00000000000E+00  0.00000000000E+00  0.82941306562E+03  0.82941306562E+03  0.00000000000E+00 0.  1.
          4   -1    0    0  501    0  0.00000000000E+00 -0.00000000000E+00 -0.22662045315E+02  0.22662045315E+02  0.00000000000E+00 0.  1.
         35    2    1    2    0    0  0.00000000000E+00  0.00000000000E+00  0.80675102030E+03  0.85207511093E+03  0.27419844258E+03 0.  0.
         25    1    3    3    0    0  0.38764854299E+02 -0.48138829158E+02  0.32878642499E+03  0.35541605768E+03  0.12000000000E+03 0.  0.
         25    1    3    3    0    0 -0.38764854299E+02  0.48138829158E+02  0.47796459531E+03  0.49665905325E+03  0.12000000000E+03 0.  0.
<mgrwt>
<rscale>  0 0.27419844E+03</rscale>
<asrwt>0</asrwt>
<pdfrwt beam="1">  1        4 0.34864691E-02 0.27419844E+03</pdfrwt>
<pdfrwt beam="2">  1       -4 0.12760199E+00 0.27419844E+03</pdfrwt>
<totfact> 0.37874796E+02</totfact>
</mgrwt>
</event>
<event>
 5    1  0.1139158E+001  0.2734815E+03  0.7818608E-02  0.1099303E+00
          2   -1    0    0  501    0  0.00000000000E+00  0.00000000000E+00  0.15316482396E+03  0.15316482396E+03  0.00000000000E+00 0.  1.
         -2   -1    0    0    0  501 -0.00000000000E+00 -0.00000000000E+00 -0.12207782342E+03  0.12207782342E+03  0.00000000000E+00 0.  1.
         35    2    1    2    0    0  0.00000000000E+00  0.00000000000E+00  0.31087000534E+02  0.27524264738E+03  0.27348146799E+03 0.  0.
         25    1    3    3    0    0  0.22788451405E+02  0.43994889154E+02 -0.27665068172E+02  0.13274117593E+03  0.12000000000E+03 0.  0.
         25    1    3    3    0    0 -0.22788451405E+02 -0.43994889154E+02  0.58752068706E+02  0.14250147145E+03  0.12000000000E+03 0.  0.
<mgrwt>
<rscale>  0 0.27348147E+03</rscale>
<asrwt>0</asrwt>
<pdfrwt beam="1">  1        2 0.23563819E-01 0.27348147E+03</pdfrwt>
<pdfrwt beam="2">  1       -2 0.18781204E-01 0.27348147E+03</pdfrwt>
<totfact> 0.53476344E+03</totfact>
</mgrwt>
</event>
<event>
 4    1  0.1139158E+001  0.2590100E+03  0.7818608E-02  0.1107739E+00
          1   -1    0    0  501    0  0.00000000000E+00  0.00000000000E+00  0.43033534785E+03  0.43033534785E+03  0.00000000000E+00 0.  1.
         -1   -1    0    0    0  501 -0.00000000000E+00 -0.00000000000E+00 -0.38973201347E+02  0.38973201347E+02  0.00000000000E+00 0.  1.
         25    1    1    2    0    0 -0.34681904262E+02  0.32890826977E+02  0.21257243802E+03  0.24874019054E+03  0.12000000000E+03 0.  0.
         25    1    1    2    0    0  0.34681904262E+02 -0.32890826977E+02  0.17878970848E+03  0.22056835866E+03  0.12000000000E+03 0.  0.
<mgrwt>
<rscale>  0 0.25901001E+03</rscale>
<asrwt>0</asrwt>
<pdfrwt beam="1">  1        1 0.66205435E-01 0.25901001E+03</pdfrwt>
<pdfrwt beam="2">  1       -1 0.59958774E-02 0.25901001E+03</pdfrwt>
<totfact> 0.73036813E+03</totfact>
</mgrwt>
</event>
<event>
 5    1  0.1139158E+001  0.2749603E+03  0.7818608E-02  0.1098474E+00
          2   -1    0    0  501    0  0.00000000000E+00  0.00000000000E+00  0.73630677807E+03  0.73630677807E+03  0.00000000000E+00 0.  1.
         -2   -1    0    0    0  501 -0.00000000000E+00 -0.00000000000E+00 -0.25669732884E+02  0.25669732884E+02  0.00000000000E+00 0.  1.
         35    2    1    2    0    0  0.00000000000E+00  0.00000000000E+00  0.71063704518E+03  0.76197651095E+03  0.27496034851E+03 0.  0.
         25    1    3    3    0    0 -0.49531580289E+02 -0.32807074026E+02  0.44167744991E+03  0.46152860292E+03  0.12000000000E+03 0.  0.
         25    1    3    3    0    0  0.49531580289E+02  0.32807074026E+02  0.26895959527E+03  0.30044790803E+03  0.12000000000E+03 0.  0.
<mgrwt>
<rscale>  0 0.27496035E+03</rscale>
<asrwt>0</asrwt>
<pdfrwt beam="1">  1        2 0.11327795E+00 0.27496035E+03</pdfrwt>
<pdfrwt beam="2">  1       -2 0.39491902E-02 0.27496035E+03</pdfrwt>
<totfact> 0.10998449E+04</totfact>
</mgrwt>
</event>
<event>
 5    1  0.1139158E+001  0.2748093E+03  0.7818608E-02  0.1098558E+00
         -2   -1    0    0    0  501 -0.00000000000E+00  0.00000000000E+00  0.21973174887E+03  0.21973174887E+03  0.00000000000E+00 0.  1.
          2   -1    0    0  501    0  0.00000000000E+00 -0.00000000000E+00 -0.85923125392E+02  0.85923125392E+02  0.00000000000E+00 0.  1.
         35    2    1    2    0    0  0.00000000000E+00  0.00000000000E+00  0.13380862348E+03  0.30565487427E+03  0.27480930560E+03 0.  0.
         25    1    3    3    0    0  0.56044976961E+01 -0.46860388680E+02  0.11969467780E+03  0.17593783651E+03  0.12000000000E+03 0.  0.
         25    1    3    3    0    0 -0.56044976961E+01  0.46860388680E+02  0.14113945680E+02  0.12971703776E+03  0.12000000000E+03 0.  0.
<mgrwt>
<rscale>  0 0.27480931E+03</rscale>
<asrwt>0</asrwt>
<pdfrwt beam="1">  1        2 0.13218942E-01 0.27480931E+03</pdfrwt>
<pdfrwt beam="2">  1       -2 0.33804884E-01 0.27480931E+03</pdfrwt>
<totfact> 0.37025787E+03</totfact>
</mgrwt>
</event>
<event>
 5    1  0.1139158E+001  0.2750397E+03  0.7818608E-02  0.1098429E+00
         -3   -1    0    0    0  501 -0.00000000000E+00  0.00000000000E+00  0.29030218351E+03  0.29030218351E+03  0.00000000000E+00 0.  1.
          3   -1    0    0  501    0  0.00000000000E+00 -0.00000000000E+00 -0.65144897317E+02  0.65144897317E+02  0.00000000000E+00 0.  1.
         35    2    1    2    0    0  0.00000000000E+00  0.00000000000E+00  0.22515728620E+03  0.35544708083E+03  0.27503967667E+03 0.  0.
         25    1    3    3    0    0 -0.21957886059E+02  0.58556934617E+02  0.14425153093E+03  0.19778667176E+03  0.12000000000E+03 0.  0.
         25    1    3    3    0    0  0.21957886059E+02 -0.58556934617E+02  0.80905755268E+02  0.15766040907E+03  0.12000000000E+03 0.  0.
<mgrwt>
<rscale>  0 0.27503968E+03</rscale>
<asrwt>0</asrwt>
<pdfrwt beam="1">  1        3 0.10022292E-01 0.27503968E+03</pdfrwt>
<pdfrwt beam="2">  1       -3 0.44661874E-01 0.27503968E+03</pdfrwt>
<totfact> 0.93515836E+02</totfact>
</mgrwt>
</event>
<event>
 5    1  0.1139158E+001  0.2747354E+03  0.7818608E-02  0.1098600E+00
         -2   -1    0    0    0  501 -0.00000000000E+00  0.00000000000E+00  0.18465706501E+04  0.18465706501E+04  0.00000000000E+00 0.  1.
          2   -1    0    0  501    0  0.00000000000E+00 -0.00000000000E+00 -0.10218877611E+02  0.10218877611E+02  0.00000000000E+00 0.  1.
         35    2    1    2    0    0  0.00000000000E+00  0.00000000000E+00  0.18363517725E+04  0.18567895277E+04  0.27473535975E+03 0.  0.
         25    1    3    3    0    0  0.17583934014E+02  0.24041038842E+02  0.51364271357E+03  0.52831430370E+03  0.12000000000E+03 0.  0.
         25    1    3    3    0    0 -0.17583934014E+02 -0.24041038842E+02  0.13227090589E+04  0.13284752240E+04  0.12000000000E+03 0.  0.
<mgrwt>
<rscale>  0 0.27473536E+03</rscale>
<asrwt>0</asrwt>
<pdfrwt beam="1">  1        2 0.15721365E-02 0.27473536E+03</pdfrwt>
<pdfrwt beam="2">  1       -2 0.28408753E+00 0.27473536E+03</pdfrwt>
<totfact> 0.34699600E+02</totfact>
</mgrwt>
</event>
<event>
 5    1  0.1139158E+001  0.2746992E+03  0.7818608E-02  0.1098620E+00
          1   -1    0    0  501    0  0.00000000000E+00  0.00000000000E+00  0.70598106073E+02  0.70598106073E+02  0.00000000000E+00 0.  1.
         -1   -1    0    0    0  501 -0.00000000000E+00 -0.00000000000E+00 -0.26721548919E+03  0.26721548919E+03  0.00000000000E+00 0.  1.
         35    2    1    2    0    0  0.00000000000E+00  0.00000000000E+00 -0.19661738311E+03  0.33781359526E+03  0.27469916236E+03 0.  0.
         25    1    3    3    0    0  0.32596988635E+02 -0.57277442158E+01 -0.26924033116E+02  0.12735884061E+03  0.12000000000E+03 0.  0.
         25    1    3    3    0    0 -0.32596988635E+02  0.57277442158E+01 -0.16969335000E+03  0.21045475465E+03  0.12000000000E+03 0.  0.
<mgrwt>
<rscale>  0 0.27469916E+03</rscale>
<asrwt>0</asrwt>
<pdfrwt beam="1">  1        1 0.10861247E-01 0.27469916E+03</pdfrwt>
<pdfrwt beam="2">  1       -1 0.41110076E-01 0.27469916E+03</pdfrwt>
<totfact> 0.33575095E+03</totfact>
</mgrwt>
</event>
<event>
 5    1  0.1139158E+001  0.2745138E+03  0.7818608E-02  0.1098724E+00
          2   -1    0    0  501    0  0.00000000000E+00  0.00000000000E+00  0.98011060468E+03  0.98011060468E+03  0.00000000000E+00 0. -1.
         -2   -1    0    0    0  501 -0.00000000000E+00 -0.00000000000E+00 -0.19221771550E+02  0.19221771550E+02  0.00000000000E+00 0. -1.
         35    2    1    2    0    0  0.00000000000E+00  0.00000000000E+00  0.96088883313E+03  0.99933237623E+03  0.27451384036E+03 0.  0.
         25    1    3    3    0    0  0.37399032007E+01 -0.51333117408E+02  0.32640953196E+03  0.35155690631E+03  0.12000000000E+03 0.  0.
         25    1    3    3    0    0 -0.37399032007E+01  0.51333117408E+02  0.63447930117E+03  0.64777546992E+03  0.12000000000E+03 0.  0.
<mgrwt>
<rscale>  0 0.27451384E+03</rscale>
<asrwt>0</asrwt>
<pdfrwt beam="1">  1        2 0.15078621E+00 0.27451384E+03</pdfrwt>
<pdfrwt beam="2">  1       -2 0.29571964E-02 0.27451384E+03</pdfrwt>
<totfact> 0.11658896E+04</totfact>
</mgrwt>
</event>
<event>
 5    1  0.1139158E+001  0.2754111E+03  0.7818608E-02  0.1098222E+00
          2   -1    0    0  501    0  0.00000000000E+00  0.00000000000E+00  0.93811674902E+02  0.93811674902E+02  0.00000000000E+00 0. -1.
         -2   -1    0    0    0  501 -0.00000000000E+00 -0.00000000000E+00 -0.20213714995E+03  0.20213714995E+03  0.00000000000E+00 0. -1.
         35    2    1    2    0    0  0.00000000000E+00  0.00000000000E+00 -0.10832547504E+03  0.29594882485E+03  0.27541114427E+03 0.  0.
         25    1    3    3    0    0  0.55065986041E+02 -0.24740626566E+02 -0.86728854936E+02  0.15989451429E+03  0.12000000000E+03 0.  0.
         25    1    3    3    0    0 -0.55065986041E+02  0.24740626566E+02 -0.21596620107E+02  0.13605431056E+03  0.12000000000E+03 0.  0.
<mgrwt>
<rscale>  0 0.27541114E+03</rscale>
<asrwt>0</asrwt>
<pdfrwt beam="1">  1        2 0.14432565E-01 0.27541114E+03</pdfrwt>
<pdfrwt beam="2">  1       -2 0.31098023E-01 0.27541114E+03</pdfrwt>
<totfact> 0.38864898E+03</totfact>
</mgrwt>
</event>
<event>
 5    1  0.1139158E+001  0.2722022E+03  0.7818608E-02  0.1100026E+00
         -3   -1    0    0    0  501 -0.00000000000E+00  0.00000000000E+00  0.50261340735E+03  0.50261340735E+03  0.00000000000E+00 0.  1.
          3   -1    0    0  501    0  0.00000000000E+00 -0.00000000000E+00 -0.36854377219E+02  0.36854377219E+02  0.00000000000E+00 0.  1.
         35    2    1    2    0    0  0.00000000000E+00  0.00000000000E+00  0.46575903013E+03  0.53946778456E+03  0.27220216097E+03 0.  0.
         25    1    3    3    0    0 -0.47537820406E+02  0.21399630703E+02  0.30718530753E+03  0.33388710925E+03  0.12000000000E+03 0.  0.
         25    1    3    3    0    0  0.47537820406E+02 -0.21399630703E+02  0.15857372260E+03  0.20558067531E+03  0.12000000000E+03 0.  0.
<mgrwt>
<rscale>  0 0.27220216E+03</rscale>
<asrwt>0</asrwt>
<pdfrwt beam="1">  1        3 0.56699045E-02 0.27220216E+03</pdfrwt>
<pdfrwt beam="2">  1       -3 0.77325135E-01 0.27220216E+03</pdfrwt>
<totfact> 0.75963625E+02</totfact>
</mgrwt>
</event>
<event>
 5    1  0.1139158E+001  0.2743840E+03  0.7818608E-02  0.1098796E+00
          2   -1    0    0  501    0  0.00000000000E+00  0.00000000000E+00  0.41781101809E+04  0.41781101809E+04  0.00000000000E+00 0. -1.
         -2   -1    0    0    0  501 -0.00000000000E+00 -0.00000000000E+00 -0.45048214982E+01  0.45048214982E+01  0.00000000000E+00 0. -1.
         35    2    1    2    0    0  0.00000000000E+00  0.00000000000E+00  0.41736053594E+04  0.41826150024E+04  0.27438396866E+03 0.  0.
         25    1    3    3    0    0 -0.29656172315E+02 -0.58216275226E+02  0.22753669631E+04  0.22794656041E+04  0.12000000000E+03 0.  0.
         25    1    3    3    0    0  0.29656172315E+02  0.58216275226E+02  0.18982383963E+04  0.19031493983E+04  0.12000000000E+03 0.  0.
<mgrwt>
<rscale>  0 0.27438397E+03</rscale>
<asrwt>0</asrwt>
<pdfrwt beam="1">  1        2 0.64278308E+00 0.27438397E+03</pdfrwt>
<pdfrwt beam="2">  1       -2 0.69305280E-03 0.27438397E+03</pdfrwt>
<totfact> 0.11732329E+03</totfact>
</mgrwt>
</event>
<event>
 5    1  0.1139158E+001  0.2752986E+03  0.7818608E-02  0.1098285E+00
          2   -1    0    0  501    0  0.00000000000E+00  0.00000000000E+00  0.95081822136E+03  0.95081822136E+03  0.00000000000E+00 0. -1.
         -2   -1    0    0    0  501 -0.00000000000E+00 -0.00000000000E+00 -0.19927394084E+02  0.19927394084E+02  0.00000000000E+00 0. -1.
         35    2    1    2    0    0  0.00000000000E+00  0.00000000000E+00  0.93089082728E+03  0.97074561544E+03  0.27529859716E+03 0.  0.
         25    1    3    3    0    0  0.51652462180E+02  0.42307965528E+02  0.49878364173E+03  0.51734230646E+03  0.12000000000E+03 0.  0.
         25    1    3    3    0    0 -0.51652462180E+02 -0.42307965528E+02  0.43210718555E+03  0.45340330899E+03  0.12000000000E+03 0.  0.
<mgrwt>
<rscale>  0 0.27529860E+03</rscale>
<asrwt>0</asrwt>
<pdfrwt beam="1">  1        2 0.14627969E+00 0.27529860E+03</pdfrwt>
<pdfrwt beam="2">  1       -2 0.30657537E-02 0.27529860E+03</pdfrwt>
<totfact> 0.11525045E+04</totfact>
</mgrwt>
</event>
<event>
 5    1  0.1139158E+001  0.2743027E+03  0.7818608E-02  0.1098842E+00
          2   -1    0    0  501    0  0.00000000000E+00  0.00000000000E+00  0.31017257798E+03  0.31017257798E+03  0.00000000000E+00 0.  1.
         -2   -1    0    0    0  501 -0.00000000000E+00 -0.00000000000E+00 -0.60645239891E+02  0.60645239891E+02  0.00000000000E+00 0.  1.
         35    2    1    2    0    0  0.00000000000E+00  0.00000000000E+00  0.24952733809E+03  0.37081781787E+03  0.27430268245E+03 0.  0.
         25    1    3    3    0    0  0.36971134069E+02  0.19814567959E+02  0.55159363825E+02  0.13857141579E+03  0.12000000000E+03 0.  0.
         25    1    3    3    0    0 -0.36971134069E+02 -0.19814567959E+02  0.19436797426E+03  0.23224640208E+03  0.12000000000E+03 0.  0.
<mgrwt>
<rscale>  0 0.27430268E+03</rscale>
<asrwt>0</asrwt>
<pdfrwt beam="1">  1        2 0.47718857E-01 0.27430268E+03</pdfrwt>
<pdfrwt beam="2">  1       -2 0.93300371E-02 0.27430268E+03</pdfrwt>
<totfact> 0.77566784E+03</totfact>
</mgrwt>
</event>
<event>
 5    1  0.1139158E+001  0.2773135E+03  0.7818608E-02  0.1097165E+00
         -2   -1    0    0    0  501 -0.00000000000E+00  0.00000000000E+00  0.59687718291E+03  0.59687718291E+03  0.00000000000E+00 0. -1.
          2   -1    0    0  501    0  0.00000000000E+00 -0.00000000000E+00 -0.32210475259E+02  0.32210475259E+02  0.00000000000E+00 0. -1.
         35    2    1    2    0    0  0.00000000000E+00  0.00000000000E+00  0.56466670765E+03  0.62908765817E+03  0.27731352461E+03 0.  0.
         25    1    3    3    0    0  0.37876720207E+02  0.44947766502E+02  0.19834496403E+03  0.23915616739E+03  0.12000000000E+03 0.  0.
         25    1    3    3    0    0 -0.37876720207E+02 -0.44947766502E+02  0.36632174362E+03  0.38993149078E+03  0.12000000000E+03 0.  0.
<mgrwt>
<rscale>  0 0.27731352E+03</rscale>
<asrwt>0</asrwt>
<pdfrwt beam="1">  1        2 0.49554582E-02 0.27731352E+03</pdfrwt>
<pdfrwt beam="2">  1       -2 0.91827251E-01 0.27731352E+03</pdfrwt>
<totfact> 0.16598452E+03</totfact>
</mgrwt>
</event>
<event>
 5    1  0.1139158E+001  0.2740441E+03  0.7818608E-02  0.1098987E+00
          3   -1    0    0  501    0  0.00000000000E+00  0.00000000000E+00  0.32639016851E+04  0.32639016851E+04  0.00000000000E+00 0.  1.
         -3   -1    0    0    0  501 -0.00000000000E+00 -0.00000000000E+00 -0.57523297995E+01  0.57523297995E+01  0.00000000000E+00 0.  1.
         35    2    1    2    0    0  0.00000000000E+00  0.00000000000E+00  0.32581493553E+04  0.32696540149E+04  0.27404407621E+03 0.  0.
         25    1    3    3    0    0  0.18130454265E+01 -0.64417940181E+02  0.18068767681E+04  0.18120034805E+04  0.12000000000E+03 0.  0.
         25    1    3    3    0    0 -0.18130454265E+01  0.64417940181E+02  0.14512725872E+04  0.14576505344E+04  0.12000000000E+03 0.  0.
<mgrwt>
<rscale>  0 0.27404408E+03</rscale>
<asrwt>0</asrwt>
<pdfrwt beam="1">  1        3 0.50213724E+00 0.27404408E+03</pdfrwt>
<pdfrwt beam="2">  1       -3 0.88497642E-03 0.27404408E+03</pdfrwt>
<totfact> 0.34731911E+01</totfact>
</mgrwt>
</event>
<event>
 5    1  0.1139158E+001  0.2751741E+03  0.7818608E-02  0.1098354E+00
          1   -1    0    0  501    0  0.00000000000E+00  0.00000000000E+00  0.33723634847E+04  0.33723634847E+04  0.00000000000E+00 0. -1.
         -1   -1    0    0    0  501 -0.00000000000E+00 -0.00000000000E+00 -0.56133312126E+01  0.56133312126E+01  0.00000000000E+00 0. -1.
         35    2    1    2    0    0  0.00000000000E+00  0.00000000000E+00  0.33667501534E+04  0.33779768159E+04  0.27517407733E+03 0.  0.
         25    1    3    3    0    0 -0.21688370654E+02  0.42996893983E+02  0.11061424477E+04  0.11136742041E+04  0.12000000000E+03 0.  0.
         25    1    3    3    0    0  0.21688370654E+02 -0.42996893983E+02  0.22606077058E+04  0.22643026118E+04  0.12000000000E+03 0.  0.
<mgrwt>
<rscale>  0 0.27517408E+03</rscale>
<asrwt>0</asrwt>
<pdfrwt beam="1">  1        1 0.51882353E+00 0.27517408E+03</pdfrwt>
<pdfrwt beam="2">  1       -1 0.86359211E-03 0.27517408E+03</pdfrwt>
<totfact> 0.90882247E+02</totfact>
</mgrwt>
</event>
<event>
 5    1  0.1139158E+001  0.2743746E+03  0.7818608E-02  0.1098802E+00
         -1   -1    0    0    0  501 -0.00000000000E+00  0.00000000000E+00  0.13738981588E+02  0.13738981588E+02  0.00000000000E+00 0. -1.
          1   -1    0    0  501    0  0.00000000000E+00 -0.00000000000E+00 -0.13698511382E+04  0.13698511382E+04  0.00000000000E+00 0. -1.
         35    2    1    2    0    0  0.00000000000E+00  0.00000000000E+00 -0.13561121566E+04  0.13835901198E+04  0.27437463123E+03 0.  0.
         25    1    3    3    0    0 -0.64079157087E+01  0.64899555185E+02 -0.74328963548E+03  0.75573308506E+03  0.12000000000E+03 0.  0.
         25    1    3    3    0    0  0.64079157087E+01 -0.64899555185E+02 -0.61282252112E+03  0.62785703472E+03  0.12000000000E+03 0.  0.
<mgrwt>
<rscale>  0 0.27437463E+03</rscale>
<asrwt>0</asrwt>
<pdfrwt beam="1">  1        1 0.21074644E+00 0.27437463E+03</pdfrwt>
<pdfrwt beam="2">  1       -1 0.21136883E-02 0.27437463E+03</pdfrwt>
<totfact> 0.55299436E+03</totfact>
</mgrwt>
</event>
<event>
 5    1  0.1139158E+001  0.2753913E+03  0.7818608E-02  0.1098233E+00
          2   -1    0    0  501    0  0.00000000000E+00  0.00000000000E+00  0.16955478206E+02  0.16955478206E+02  0.00000000000E+00 0.  1.
         -2   -1    0    0    0  501 -0.00000000000E+00 -0.00000000000E+00 -0.11182277575E+04  0.11182277575E+04  0.00000000000E+00 0.  1.
         35    2    1    2    0    0  0.00000000000E+00  0.00000000000E+00 -0.11012722793E+04  0.11351832357E+04  0.27539125891E+03 0.  0.
         25    1    3    3    0    0  0.29639302769E+02  0.57043427509E+01 -0.79964008876E+03  0.80915715368E+03  0.12000000000E+03 0.  0.
         25    1    3    3    0    0 -0.29639302769E+02 -0.57043427509E+01 -0.30163219050E+03  0.32602608200E+03  0.12000000000E+03 0.  0.
<mgrwt>
<rscale>  0 0.27539126E+03</rscale>
<asrwt>0</asrwt>
<pdfrwt beam="1">  1        2 0.26085348E-02 0.27539126E+03</pdfrwt>
<pdfrwt beam="2">  1       -2 0.17203506E+00 0.27539126E+03</pdfrwt>
<totfact> 0.83655218E+02</totfact>
</mgrwt>
</event>
<event>
 5    1  0.1139158E+001  0.2731089E+03  0.7818608E-02  0.1099513E+00
          1   -1    0    0  501    0  0.00000000000E+00  0.00000000000E+00  0.34216087730E+03  0.34216087730E+03  0.00000000000E+00 0.  1.
         -1   -1    0    0    0  501 -0.00000000000E+00 -0.00000000000E+00 -0.54498100627E+02  0.54498100627E+02  0.00000000000E+00 0.  1.
         35    2    1    2    0    0  0.00000000000E+00  0.00000000000E+00  0.28766277668E+03  0.39665897793E+03  0.27310890078E+03 0.  0.
         25    1    3    3    0    0 -0.19676883273E+01  0.36858839408E+02  0.65825091747E+02  0.14175820450E+03  0.12000000000E+03 0.  0.
         25    1    3    3    0    0  0.19676883273E+01 -0.36858839408E+02  0.22183768493E+03  0.25490077343E+03  0.12000000000E+03 0.  0.
<mgrwt>
<rscale>  0 0.27310890E+03</rscale>
<asrwt>0</asrwt>
<pdfrwt beam="1">  1        1 0.52640134E-01 0.27310890E+03</pdfrwt>
<pdfrwt beam="2">  1       -1 0.83843234E-02 0.27310890E+03</pdfrwt>
<totfact> 0.58946804E+03</totfact>
</mgrwt>
</event>
<event>
 5    1  0.1139158E+001  0.2768394E+03  0.7818608E-02  0.1097428E+00
         -2   -1    0    0    0  501 -0.00000000000E+00  0.00000000000E+00  0.51313940901E+02  0.51313940901E+02  0.00000000000E+00 0. -1.
          2   -1    0    0  501    0  0.00000000000E+00 -0.00000000000E+00 -0.37338820408E+03  0.37338820408E+03  0.00000000000E+00 0. -1.
         35    2    1    2    0    0  0.00000000000E+00  0.00000000000E+00 -0.32207426318E+03  0.42470214498E+03  0.27683944977E+03 0.  0.
         25    1    3    3    0    0 -0.61958687773E+02  0.11606174466E+02 -0.11801531829E+03  0.17972533942E+03  0.12000000000E+03 0.  0.
         25    1    3    3    0    0  0.61958687773E+02 -0.11606174466E+02 -0.20405894488E+03  0.24497680556E+03  0.12000000000E+03 0.  0.
<mgrwt>
<rscale>  0 0.27683945E+03</rscale>
<asrwt>0</asrwt>
<pdfrwt beam="1">  1        2 0.57444340E-01 0.27683945E+03</pdfrwt>
<pdfrwt beam="2">  1       -2 0.78944523E-02 0.27683945E+03</pdfrwt>
<totfact> 0.82583632E+03</totfact>
</mgrwt>
</event>
<event>
 5    1  0.1139158E+001  0.2839626E+03  0.7818608E-02  0.1093544E+00
          3   -1    0    0  501    0  0.00000000000E+00  0.00000000000E+00  0.80835806483E+03  0.80835806483E+03  0.00000000000E+00 0.  1.
         -3   -1    0    0    0  501 -0.00000000000E+00 -0.00000000000E+00 -0.24937817275E+02  0.24937817275E+02  0.00000000000E+00 0.  1.
         35    2    1    2    0    0  0.00000000000E+00  0.00000000000E+00  0.78342024756E+03  0.83329588211E+03  0.28396257298E+03 0.  0.
         25    1    3    3    0    0  0.58446460129E+02 -0.48372895991E+02  0.39658527851E+03  0.42123130095E+03  0.12000000000E+03 0.  0.
         25    1    3    3    0    0 -0.58446460129E+02  0.48372895991E+02  0.38683496905E+03  0.41206458116E+03  0.12000000000E+03 0.  0.
<mgrwt>
<rscale>  0 0.28396257E+03</rscale>
<asrwt>0</asrwt>
<pdfrwt beam="1">  1        3 0.12436276E+00 0.28396257E+03</pdfrwt>
<pdfrwt beam="2">  1       -3 0.38365879E-02 0.28396257E+03</pdfrwt>
<totfact> 0.47978555E+02</totfact>
</mgrwt>
</event>
<event>
 5    1  0.1139158E+001  0.2744992E+03  0.7818608E-02  0.1098732E+00
         -2   -1    0    0    0  501 -0.00000000000E+00  0.00000000000E+00  0.15935968949E+02  0.15935968949E+02  0.00000000000E+00 0. -1.
          2   -1    0    0  501    0  0.00000000000E+00 -0.00000000000E+00 -0.11820712148E+04  0.11820712148E+04  0.00000000000E+00 0. -1.
         35    2    1    2    0    0  0.00000000000E+00  0.00000000000E+00 -0.11661352459E+04  0.11980071838E+04  0.27449918160E+03 0.  0.
         25    1    3    3    0    0 -0.99228003396E+01  0.65645681349E+02 -0.60682531177E+03  0.62212922810E+03  0.12000000000E+03 0.  0.
         25    1    3    3    0    0  0.99228003396E+01 -0.65645681349E+02 -0.55930993412E+03  0.57587795569E+03  0.12000000000E+03 0.  0.
<mgrwt>
<rscale>  0 0.27449918E+03</rscale>
<asrwt>0</asrwt>
<pdfrwt beam="1">  1        2 0.18185715E+00 0.27449918E+03</pdfrwt>
<pdfrwt beam="2">  1       -2 0.24516870E-02 0.27449918E+03</pdfrwt>
<totfact> 0.11687121E+04</totfact>
</mgrwt>
</event>
<event>
 5    1  0.1139158E+001  0.2748666E+03  0.7818608E-02  0.1098526E+00
         -2   -1    0    0    0  501 -0.00000000000E+00  0.00000000000E+00  0.17566956297E+04  0.17566956297E+04  0.00000000000E+00 0. -1.
          2   -1    0    0  501    0  0.00000000000E+00 -0.00000000000E+00 -0.10751954759E+02  0.10751954759E+02  0.00000000000E+00 0. -1.
         35    2    1    2    0    0  0.00000000000E+00  0.00000000000E+00  0.17459436749E+04  0.17674475844E+04  0.27486659991E+03 0.  0.
         25    1    3    3    0    0  0.37513964840E+02 -0.45036102694E+02  0.66437509122E+03  0.67766496880E+03  0.12000000000E+03 0.  0.
         25    1    3    3    0    0 -0.37513964840E+02  0.45036102694E+02  0.10815685837E+04  0.10897826156E+04  0.12000000000E+03 0.  0.
<mgrwt>
<rscale>  0 0.27486660E+03</rscale>
<asrwt>0</asrwt>
<pdfrwt beam="1">  1        2 0.16541483E-02 0.27486660E+03</pdfrwt>
<pdfrwt beam="2">  1       -2 0.27026064E+00 0.27486660E+03</pdfrwt>
<totfact> 0.38917811E+02</totfact>
</mgrwt>
</event>
<event>
 5    1  0.1139158E+001  0.2749883E+03  0.7818608E-02  0.1098458E+00
          4   -1    0    0  501    0  0.00000000000E+00  0.00000000000E+00  0.12878779505E+02  0.12878779505E+02  0.00000000000E+00 0.  1.
         -4   -1    0    0    0  501 -0.00000000000E+00 -0.00000000000E+00 -0.14678908479E+04  0.14678908479E+04  0.00000000000E+00 0.  1.
         35    2    1    2    0    0  0.00000000000E+00  0.00000000000E+00 -0.14550120684E+04  0.14807696274E+04  0.27498830934E+03 0.  0.
         25    1    3    3    0    0 -0.21296155992E+02  0.61691307831E+02 -0.64316847663E+03  0.65751428354E+03  0.12000000000E+03 0.  0.
         25    1    3    3    0    0  0.21296155992E+02 -0.61691307831E+02 -0.81184359177E+03  0.82325534388E+03  0.12000000000E+03 0.  0.
<mgrwt>
<rscale>  0 0.27498831E+03</rscale>
<asrwt>0</asrwt>
<pdfrwt beam="1">  1        4 0.19813508E-02 0.27498831E+03</pdfrwt>
<pdfrwt beam="2">  1       -4 0.22582935E+00 0.27498831E+03</pdfrwt>
<totfact> 0.19220051E+02</totfact>
</mgrwt>
</event>
<event>
 5    1  0.1139158E+001  0.2750734E+03  0.7818608E-02  0.1098411E+00
          1   -1    0    0  501    0  0.00000000000E+00  0.00000000000E+00  0.17225209871E+04  0.17225209871E+04  0.00000000000E+00 0. -1.
         -1   -1    0    0    0  501 -0.00000000000E+00 -0.00000000000E+00 -0.10981779724E+02  0.10981779724E+02  0.00000000000E+00 0. -1.
         35    2    1    2    0    0  0.00000000000E+00  0.00000000000E+00  0.17115392074E+04  0.17335027668E+04  0.27507341602E+03 0.  0.
         25    1    3    3    0    0 -0.66846573986E+02 -0.66503533721E+01  0.84372246851E+03  0.85485688599E+03  0.12000000000E+03 0.  0.
         25    1    3    3    0    0  0.66846573986E+02  0.66503533721E+01  0.86781673888E+03  0.87864588084E+03  0.12000000000E+03 0.  0.
<mgrwt>
<rscale>  0 0.27507342E+03</rscale>
<asrwt>0</asrwt>
<pdfrwt beam="1">  1        1 0.26500301E+00 0.27507342E+03</pdfrwt>
<pdfrwt beam="2">  1       -1 0.16895059E-02 0.27507342E+03</pdfrwt>
<totfact> 0.44847362E+03</totfact>
</mgrwt>
</event>
<event>
 5    1  0.1139158E+001  0.2754230E+03  0.7818608E-02  0.1098215E+00
         -2   -1    0    0    0  501 -0.00000000000E+00  0.00000000000E+00  0.10833652901E+02  0.10833652901E+02  0.00000000000E+00 0.  1.
          2   -1    0    0  501    0  0.00000000000E+00 -0.00000000000E+00 -0.17505132526E+04  0.17505132526E+04  0.00000000000E+00 0.  1.
         35    2    1    2    0    0  0.00000000000E+00  0.00000000000E+00 -0.17396795997E+04  0.17613469055E+04  0.27542296910E+03 0.  0.
         25    1    3    3    0    0  0.51245284617E+02 -0.57024711689E+01 -0.59065630352E+03  0.60492434755E+03  0.12000000000E+03 0.  0.
         25    1    3    3    0    0 -0.51245284617E+02  0.57024711689E+01 -0.11490232961E+04  0.11564225579E+04  0.12000000000E+03 0.  0.
<mgrwt>
<rscale>  0 0.27542297E+03</rscale>
<asrwt>0</asrwt>
<pdfrwt beam="1">  1        2 0.26930919E+00 0.27542297E+03</pdfrwt>
<pdfrwt beam="2">  1       -2 0.16667192E-02 0.27542297E+03</pdfrwt>
<totfact> 0.10157947E+04</totfact>
</mgrwt>
</event>
<event>
 5    1  0.1139158E+001  0.2751584E+03  0.7818608E-02  0.1098363E+00
          1   -1    0    0  501    0  0.00000000000E+00  0.00000000000E+00  0.21372928773E+04  0.21372928773E+04  0.00000000000E+00 0. -1.
         -1   -1    0    0    0  501 -0.00000000000E+00 -0.00000000000E+00 -0.88560796777E+01  0.88560796777E+01  0.00000000000E+00 0. -1.
         35    2    1    2    0    0  0.00000000000E+00  0.00000000000E+00  0.21284367976E+04  0.21461489570E+04  0.27515839813E+03 0.  0.
         25    1    3    3    0    0  0.10754296419E+02 -0.61698657464E+02  0.87226739620E+03  0.88270764679E+03  0.12000000000E+03 0.  0.
         25    1    3    3    0    0 -0.10754296419E+02  0.61698657464E+02  0.12561694014E+04  0.12634413102E+04  0.12000000000E+03 0.  0.
<mgrwt>
<rscale>  0 0.27515840E+03</rscale>
<asrwt>0</asrwt>
<pdfrwt beam="1">  1        1 0.32881388E+00 0.27515840E+03</pdfrwt>
<pdfrwt beam="2">  1       -1 0.13624755E-02 0.27515840E+03</pdfrwt>
<totfact> 0.32975170E+03</totfact>
</mgrwt>
</event>
<event>
 5    1  0.1139158E+001  0.2814847E+03  0.7818608E-02  0.1094881E+00
          2   -1    0    0  501    0  0.00000000000E+00  0.00000000000E+00  0.64419015293E+02  0.64419015293E+02  0.00000000000E+00 0. -1.
         -2   -1    0    0    0  501 -0.00000000000E+00 -0.00000000000E+00 -0.30749309637E+03  0.30749309637E+03  0.00000000000E+00 0. -1.
         35    2    1    2    0    0  0.00000000000E+00  0.00000000000E+00 -0.24307408107E+03  0.37191211166E+03  0.28148465306E+03 0.  0.
         25    1    3    3    0    0  0.90053338299E+01 -0.50748978598E+02 -0.19084734242E+03  0.23125583879E+03  0.12000000000E+03 0.  0.
         25    1    3    3    0    0 -0.90053338299E+01  0.50748978598E+02 -0.52226738648E+02  0.14065627286E+03  0.12000000000E+03 0.  0.
<mgrwt>
<rscale>  0 0.28148465E+03</rscale>
<asrwt>0</asrwt>
<pdfrwt beam="1">  1        2 0.99106177E-02 0.28148465E+03</pdfrwt>
<pdfrwt beam="2">  1       -2 0.47306631E-01 0.28148465E+03</pdfrwt>
<totfact> 0.27733630E+03</totfact>
</mgrwt>
</event>
<event>
 5    1  0.1139158E+001  0.2741731E+03  0.7818608E-02  0.1098915E+00
         -2   -1    0    0    0  501 -0.00000000000E+00  0.00000000000E+00  0.84053969598E+02  0.84053969598E+02  0.00000000000E+00 0. -1.
          2   -1    0    0  501    0  0.00000000000E+00 -0.00000000000E+00 -0.22357931517E+03  0.22357931517E+03  0.00000000000E+00 0. -1.
         35    2    1    2    0    0  0.00000000000E+00  0.00000000000E+00 -0.13952534557E+03  0.30763328477E+03  0.27417314938E+03 0.  0.
         25    1    3    3    0    0 -0.12719100111E+02 -0.40336880529E+02 -0.12701849807E+03  0.17978469982E+03  0.12000000000E+03 0.  0.
         25    1    3    3    0    0  0.12719100111E+02  0.40336880529E+02 -0.12506847506E+02  0.12784858495E+03  0.12000000000E+03 0.  0.
<mgrwt>
<rscale>  0 0.27417315E+03</rscale>
<asrwt>0</asrwt>
<pdfrwt beam="1">  1        2 0.34396817E-01 0.27417315E+03</pdfrwt>
<pdfrwt beam="2">  1       -2 0.12931380E-01 0.27417315E+03</pdfrwt>
<totfact> 0.65449103E+03</totfact>
</mgrwt>
</event>
<event>
 5    1  0.1139158E+001  0.2751531E+03  0.7818608E-02  0.1098366E+00
          2   -1    0    0  501    0  0.00000000000E+00  0.00000000000E+00  0.11496928476E+04  0.11496928476E+04  0.00000000000E+00 0. -1.
         -2   -1    0    0    0  501 -0.00000000000E+00 -0.00000000000E+00 -0.16462919991E+02  0.16462919991E+02  0.00000000000E+00 0. -1.
         35    2    1    2    0    0  0.00000000000E+00  0.00000000000E+00  0.11332299276E+04  0.11661557676E+04  0.27515305824E+03 0.  0.
         25    1    3    3    0    0  0.81714577007E+01 -0.44908233381E+02  0.35710088877E+03  0.37947933660E+03  0.12000000000E+03 0.  0.
         25    1    3    3    0    0 -0.81714577007E+01  0.44908233381E+02  0.77612903885E+03  0.78667643100E+03  0.12000000000E+03 0.  0.
<mgrwt>
<rscale>  0 0.27515306E+03</rscale>
<asrwt>0</asrwt>
<pdfrwt beam="1">  1        2 0.17687576E+00 0.27515306E+03</pdfrwt>
<pdfrwt beam="2">  1       -2 0.25327578E-02 0.27515306E+03</pdfrwt>
<totfact> 0.11625778E+04</totfact>
</mgrwt>
</event>
<event>
 5    1  0.1139158E+001  0.2755397E+03  0.7818608E-02  0.1098150E+00
          1   -1    0    0  501    0  0.00000000000E+00  0.00000000000E+00  0.17695064380E+03  0.17695064380E+03  0.00000000000E+00 0.  1.
         -1   -1    0    0    0  501 -0.00000000000E+00 -0.00000000000E+00 -0.10726452273E+03  0.10726452273E+03  0.00000000000E+00 0.  1.
         35    2    1    2    0    0  0.00000000000E+00  0.00000000000E+00  0.69686121071E+02  0.28421516652E+03  0.27553966214E+03 0.  0.
         25    1    3    3    0    0 -0.34198369207E+02  0.29331613921E+01 -0.25323537921E+02  0.12735546107E+03  0.12000000000E+03 0.  0.
         25    1    3    3    0    0  0.34198369207E+02 -0.29331613921E+01  0.95009658991E+02  0.15685970545E+03  0.12000000000E+03 0.  0.
<mgrwt>
<rscale>  0 0.27553966E+03</rscale>
<asrwt>0</asrwt>
<pdfrwt beam="1">  1        1 0.27223176E-01 0.27553966E+03</pdfrwt>
<pdfrwt beam="2">  1       -1 0.16502234E-01 0.27553966E+03</pdfrwt>
<totfact> 0.46967258E+03</totfact>
</mgrwt>
</event>
<event>
 5    1  0.1139158E+001  0.2747799E+03  0.7818608E-02  0.1098575E+00
          3   -1    0    0  501    0  0.00000000000E+00  0.00000000000E+00  0.49432964623E+02  0.49432964623E+02  0.00000000000E+00 0.  1.
         -3   -1    0    0    0  501 -0.00000000000E+00 -0.00000000000E+00 -0.38185036662E+03  0.38185036662E+03  0.00000000000E+00 0.  1.
         35    2    1    2    0    0  0.00000000000E+00  0.00000000000E+00 -0.33241740200E+03  0.43128333124E+03  0.27477988037E+03 0.  0.
         25    1    3    3    0    0 -0.55735826365E+02 -0.36646317711E+02 -0.17429775400E+03  0.22187641153E+03  0.12000000000E+03 0.  0.
         25    1    3    3    0    0  0.55735826365E+02  0.36646317711E+02 -0.15811964800E+03  0.20940691972E+03  0.12000000000E+03 0.  0.
<mgrwt>
<rscale>  0 0.27477988E+03</rscale>
<asrwt>0</asrwt>
<pdfrwt beam="1">  1        3 0.76050715E-02 0.27477988E+03</pdfrwt>
<pdfrwt beam="2">  1       -3 0.58746210E-01 0.27477988E+03</pdfrwt>
<totfact> 0.84692217E+02</totfact>
</mgrwt>
</event>
<event>
 5    1  0.1139158E+001  0.2755183E+03  0.7818608E-02  0.1098162E+00
          1   -1    0    0  501    0  0.00000000000E+00  0.00000000000E+00  0.58927978431E+03  0.58927978431E+03  0.00000000000E+00 0.  1.
         -1   -1    0    0    0  501 -0.00000000000E+00 -0.00000000000E+00 -0.32204714987E+02  0.32204714987E+02  0.00000000000E+00 0.  1.
         35    2    1    2    0    0  0.00000000000E+00  0.00000000000E+00  0.55707506932E+03  0.62148449929E+03  0.27551832971E+03 0.  0.
         25    1    3    3    0    0  0.49202824039E+02 -0.45272232156E+02  0.25519416233E+03  0.28981813847E+03  0.12000000000E+03 0.  0.
         25    1    3    3    0    0 -0.49202824039E+02  0.45272232156E+02  0.30188090699E+03  0.33166636082E+03  0.12000000000E+03 0.  0.
<mgrwt>
<rscale>  0 0.27551833E+03</rscale>
<asrwt>0</asrwt>
<pdfrwt beam="1">  1        1 0.90658420E-01 0.27551833E+03</pdfrwt>
<pdfrwt beam="2">  1       -1 0.49545720E-02 0.27551833E+03</pdfrwt>
<totfact> 0.64120292E+03</totfact>
</mgrwt>
</event>
<event>
 5    1  0.1139158E+001  0.2757530E+03  0.7818608E-02  0.1098031E+00
         -2   -1    0    0    0  501 -0.00000000000E+00  0.00000000000E+00  0.11448243133E+04  0.11448243133E+04  0.00000000000E+00 0. -1.
          2   -1    0    0  501    0  0.00000000000E+00 -0.00000000000E+00 -0.16605107209E+02  0.16605107209E+02  0.00000000000E+00 0. -1.
         35    2    1    2    0    0  0.00000000000E+00  0.00000000000E+00  0.11282192061E+04  0.11614294205E+04  0.27575300874E+03 0.  0.
         25    1    3    3    0    0  0.18900817927E+02 -0.40797203080E+02  0.77838781001E+03  0.78886579053E+03  0.12000000000E+03 0.  0.
         25    1    3    3    0    0 -0.18900817927E+02  0.40797203080E+02  0.34983139607E+03  0.37256362996E+03  0.12000000000E+03 0.  0.
<mgrwt>
<rscale>  0 0.27575301E+03</rscale>
<asrwt>0</asrwt>
<pdfrwt beam="1">  1        2 0.25546328E-02 0.27575301E+03</pdfrwt>
<pdfrwt beam="2">  1       -2 0.17612676E+00 0.27575301E+03</pdfrwt>
<totfact> 0.80729493E+02</totfact>
</mgrwt>
</event>
<event>
 5    1  0.1139158E+001  0.2767933E+03  0.7818608E-02  0.1097453E+00
         -2   -1    0    0    0  501 -0.00000000000E+00  0.00000000000E+00  0.87260982244E+02  0.87260982244E+02  0.00000000000E+00 0.  1.
          2   -1    0    0  501    0  0.00000000000E+00 -0.00000000000E+00 -0.21949832084E+03  0.21949832084E+03  0.00000000000E+00 0.  1.
         35    2    1    2    0    0  0.00000000000E+00  0.00000000000E+00 -0.13223733859E+03  0.30675930308E+03  0.27679334585E+03 0.  0.
         25    1    3    3    0    0  0.44519301916E+02 -0.49952060341E+02 -0.84545905970E+02  0.16132323699E+03  0.12000000000E+03 0.  0.
         25    1    3    3    0    0 -0.44519301916E+02  0.49952060341E+02 -0.47691432622E+02  0.14543606609E+03  0.12000000000E+03 0.  0.
<mgrwt>
<rscale>  0 0.27679335E+03</rscale>
<asrwt>0</asrwt>
<pdfrwt beam="1">  1        2 0.33768972E-01 0.27679335E+03</pdfrwt>
<pdfrwt beam="2">  1       -2 0.13424767E-01 0.27679335E+03</pdfrwt>
<totfact> 0.62841909E+03</totfact>
</mgrwt>
</event>
<event>
 5    1  0.1139158E+001  0.2769943E+03  0.7818608E-02  0.1097342E+00
         -2   -1    0    0    0  501 -0.00000000000E+00  0.00000000000E+00  0.11461191184E+02  0.11461191184E+02  0.00000000000E+00 0.  1.
          2   -1    0    0  501    0  0.00000000000E+00 -0.00000000000E+00 -0.16736012373E+04  0.16736012373E+04  0.00000000000E+00 0.  1.
         35    2    1    2    0    0  0.00000000000E+00  0.00000000000E+00 -0.16621400462E+04  0.16850624285E+04  0.27699432303E+03 0.  0.
         25    1    3    3    0    0 -0.48693153144E+02  0.48547960402E+02 -0.78655889560E+03  0.79862558428E+03  0.12000000000E+03 0.  0.
         25    1    3    3    0    0  0.48693153144E+02 -0.48547960402E+02 -0.87558115055E+03  0.88643684424E+03  0.12000000000E+03 0.  0.
<mgrwt>
<rscale>  0 0.27699432E+03</rscale>
<asrwt>0</asrwt>
<pdfrwt beam="1">  1        2 0.25747689E+00 0.27699432E+03</pdfrwt>
<pdfrwt beam="2">  1       -2 0.17632617E-02 0.27699432E+03</pdfrwt>
<totfact> 0.10267703E+04</totfact>
</mgrwt>
</event>
<event>
 5    1  0.1139158E+001  0.2747407E+03  0.7818608E-02  0.1098597E+00
          1   -1    0    0  501    0  0.00000000000E+00  0.00000000000E+00  0.22312024215E+02  0.22312024215E+02  0.00000000000E+00 0.  1.
         -1   -1    0    0    0  501 -0.00000000000E+00 -0.00000000000E+00 -0.84575974083E+03  0.84575974083E+03  0.00000000000E+00 0.  1.
         35    2    1    2    0    0  0.00000000000E+00  0.00000000000E+00 -0.82344771662E+03  0.86807176505E+03  0.27474069096E+03 0.  0.
         25    1    3    3    0    0  0.20531610075E+02  0.42715851753E+02 -0.26270503853E+03  0.29267751583E+03  0.12000000000E+03 0.  0.
         25    1    3    3    0    0 -0.20531610075E+02 -0.42715851753E+02 -0.56074267809E+03  0.57539424922E+03  0.12000000000E+03 0.  0.
<mgrwt>
<rscale>  0 0.27474069E+03</rscale>
<asrwt>0</asrwt>
<pdfrwt beam="1">  1        1 0.34326190E-02 0.27474069E+03</pdfrwt>
<pdfrwt beam="2">  1       -1 0.13011689E+00 0.27474069E+03</pdfrwt>
<totfact> 0.15304872E+03</totfact>
</mgrwt>
</event>
<event>
 5    1  0.1139158E+001  0.2755833E+03  0.7818608E-02  0.1098126E+00
          2   -1    0    0  501    0  0.00000000000E+00  0.00000000000E+00  0.53730346887E+03  0.53730346887E+03  0.00000000000E+00 0.  1.
         -2   -1    0    0    0  501 -0.00000000000E+00 -0.00000000000E+00 -0.35336711045E+02  0.35336711045E+02  0.00000000000E+00 0.  1.
         35    2    1    2    0    0  0.00000000000E+00  0.00000000000E+00  0.50196675782E+03  0.57264017991E+03  0.27558328994E+03 0.  0.
         25    1    3    3    0    0 -0.35604992743E+02 -0.51395838925E+02  0.19690593464E+03  0.23891671115E+03  0.12000000000E+03 0.  0.
         25    1    3    3    0    0  0.35604992743E+02  0.51395838925E+02  0.30506082318E+03  0.33372346877E+03  0.12000000000E+03 0.  0.
<mgrwt>
<rscale>  0 0.27558329E+03</rscale>
<asrwt>0</asrwt>
<pdfrwt beam="1">  1        2 0.82662066E-01 0.27558329E+03</pdfrwt>
<pdfrwt beam="2">  1       -2 0.54364175E-02 0.27558329E+03</pdfrwt>
<totfact> 0.98271626E+03</totfact>
</mgrwt>
</event>
<event>
 5    1  0.1139158E+001  0.2752310E+03  0.7818608E-02  0.1098323E+00
         -1   -1    0    0    0  501 -0.00000000000E+00  0.00000000000E+00  0.34970780050E+02  0.34970780050E+02  0.00000000000E+00 0. -1.
          1   -1    0    0  501    0  0.00000000000E+00 -0.00000000000E+00 -0.54153864923E+03  0.54153864923E+03  0.00000000000E+00 0. -1.
         35    2    1    2    0    0  0.00000000000E+00  0.00000000000E+00 -0.50656786918E+03  0.57650942928E+03  0.27523102289E+03 0.  0.
         25    1    3    3    0    0 -0.23325199547E+02 -0.40939831087E+02 -0.15243859255E+03  0.19964383087E+03  0.12000000000E+03 0.  0.
         25    1    3    3    0    0  0.23325199547E+02  0.40939831087E+02 -0.35412927663E+03  0.37686559842E+03  0.12000000000E+03 0.  0.
<mgrwt>
<rscale>  0 0.27523102E+03</rscale>
<asrwt>0</asrwt>
<pdfrwt beam="1">  1        1 0.83313638E-01 0.27523102E+03</pdfrwt>
<pdfrwt beam="2">  1       -1 0.53801200E-02 0.27523102E+03</pdfrwt>
<totfact> 0.63600303E+03</totfact>
</mgrwt>
</event>
<event>
 5    1  0.1139158E+001  0.2750433E+03  0.7818608E-02  0.1098427E+00
          2   -1    0    0  501    0  0.00000000000E+00  0.00000000000E+00  0.23365750981E+03  0.23365750981E+03  0.00000000000E+00 0. -1.
         -2   -1    0    0    0  501 -0.00000000000E+00 -0.00000000000E+00 -0.80939850084E+02  0.80939850084E+02  0.00000000000E+00 0. -1.
         35    2    1    2    0    0  0.00000000000E+00  0.00000000000E+00  0.15271765972E+03  0.31459735989E+03  0.27504329706E+03 0.  0.
         25    1    3    3    0    0 -0.46602655981E+02  0.13496237010E+02  0.23220895575E+02  0.13150348265E+03  0.12000000000E+03 0.  0.
         25    1    3    3    0    0  0.46602655981E+02 -0.13496237010E+02  0.12949676415E+03  0.18309387724E+03  0.12000000000E+03 0.  0.
<mgrwt>
<rscale>  0 0.27504330E+03</rscale>
<asrwt>0</asrwt>
<pdfrwt beam="1">  1        2 0.35947309E-01 0.27504330E+03</pdfrwt>
<pdfrwt beam="2">  1       -2 0.12452285E-01 0.27504330E+03</pdfrwt>
<totfact> 0.66341270E+03</totfact>
</mgrwt>
</event>
<event>
 5    1  0.1139158E+001  0.2752906E+03  0.7818608E-02  0.1098289E+00
         -2   -1    0    0    0  501 -0.00000000000E+00  0.00000000000E+00  0.72206058799E+01  0.72206058799E+01  0.00000000000E+00 0. -1.
          2   -1    0    0  501    0  0.00000000000E+00 -0.00000000000E+00 -0.26239118181E+04  0.26239118181E+04  0.00000000000E+00 0. -1.
         35    2    1    2    0    0  0.00000000000E+00  0.00000000000E+00 -0.26166912122E+04  0.26311324240E+04  0.27529063262E+03 0.  0.
         25    1    3    3    0    0 -0.37905157878E+02 -0.35870914164E+01 -0.18401983019E+04  0.18444997855E+04  0.12000000000E+03 0.  0.
         25    1    3    3    0    0  0.37905157878E+02  0.35870914164E+01 -0.77649291028E+03  0.78663263848E+03  0.12000000000E+03 0.  0.
<mgrwt>
<rscale>  0 0.27529063E+03</rscale>
<asrwt>0</asrwt>
<pdfrwt beam="1">  1        2 0.40367830E+00 0.27529063E+03</pdfrwt>
<pdfrwt beam="2">  1       -2 0.11108637E-02 0.27529063E+03</pdfrwt>
<totfact> 0.62672429E+03</totfact>
</mgrwt>
</event>
<event>
 5    1  0.1139158E+001  0.2747994E+03  0.7818608E-02  0.1098564E+00
          2   -1    0    0  501    0  0.00000000000E+00  0.00000000000E+00  0.80731009020E+02  0.80731009020E+02  0.00000000000E+00 0.  1.
         -2   -1    0    0    0  501 -0.00000000000E+00 -0.00000000000E+00 -0.23384663320E+03  0.23384663320E+03  0.00000000000E+00 0.  1.
         35    2    1    2    0    0  0.00000000000E+00  0.00000000000E+00 -0.15311562418E+03  0.31457764222E+03  0.27479937885E+03 0.  0.
         25    1    3    3    0    0  0.85860159960E+01  0.60388672553E+02 -0.10807833836E+03  0.17263093195E+03  0.12000000000E+03 0.  0.
         25    1    3    3    0    0 -0.85860159960E+01 -0.60388672553E+02 -0.45037285825E+02  0.14194671027E+03  0.12000000000E+03 0.  0.
<mgrwt>
<rscale>  0 0.27479938E+03</rscale>
<asrwt>0</asrwt>
<pdfrwt beam="1">  1        2 0.12420155E-01 0.27479938E+03</pdfrwt>
<pdfrwt beam="2">  1       -2 0.35976405E-01 0.27479938E+03</pdfrwt>
<totfact> 0.35549111E+03</totfact>
</mgrwt>
</event>
<event>
 5    1  0.1139158E+001  0.2794181E+03  0.7818608E-02  0.1096007E+00
          1   -1    0    0  501    0  0.00000000000E+00  0.00000000000E+00  0.92633810585E+03  0.92633810585E+03  0.00000000000E+00 0. -1.
         -1   -1    0    0    0  501 -0.00000000000E+00 -0.00000000000E+00 -0.21070729123E+02  0.21070729123E+02  0.00000000000E+00 0. -1.
         35    2    1    2    0    0  0.00000000000E+00  0.00000000000E+00  0.90526737673E+03  0.94740883497E+03  0.27941810467E+03 0.  0.
         25    1    3    3    0    0 -0.27017251984E+02  0.46123212021E+01  0.67670954405E+03  0.68781321042E+03  0.12000000000E+03 0.  0.
         25    1    3    3    0    0  0.27017251984E+02 -0.46123212021E+01  0.22855783267E+03  0.25959562455E+03  0.12000000000E+03 0.  0.
<mgrwt>
<rscale>  0 0.27941810E+03</rscale>
<asrwt>0</asrwt>
<pdfrwt beam="1">  1        1 0.14251352E+00 0.27941810E+03</pdfrwt>
<pdfrwt beam="2">  1       -1 0.32416513E-02 0.27941810E+03</pdfrwt>
<totfact> 0.61199923E+03</totfact>
</mgrwt>
</event>
<event>
 5    1  0.1139158E+001  0.2861215E+03  0.7818608E-02  0.1092392E+00
         -2   -1    0    0    0  501 -0.00000000000E+00  0.00000000000E+00  0.17314492705E+03  0.17314492705E+03  0.00000000000E+00 0.  1.
          2   -1    0    0  501    0  0.00000000000E+00 -0.00000000000E+00 -0.11820375700E+03  0.11820375700E+03  0.00000000000E+00 0.  1.
         35    2    1    2    0    0  0.00000000000E+00  0.00000000000E+00  0.54941170053E+02  0.29134868405E+03  0.28612151882E+03 0.  0.
         25    1    3    3    0    0  0.57534313249E+02  0.52692932020E+00  0.80926373698E+02  0.15575478425E+03  0.12000000000E+03 0.  0.
         25    1    3    3    0    0 -0.57534313249E+02 -0.52692932020E+00 -0.25985203645E+02  0.13559389980E+03  0.12000000000E+03 0.  0.
<mgrwt>
<rscale>  0 0.28612152E+03</rscale>
<asrwt>0</asrwt>
<pdfrwt beam="1">  1        2 0.18185193E-01 0.28612152E+03</pdfrwt>
<pdfrwt beam="2">  1       -2 0.26637681E-01 0.28612152E+03</pdfrwt>
<totfact> 0.39213902E+03</totfact>
</mgrwt>
</event>
<event>
 5    1  0.1139158E+001  0.2754866E+03  0.7818608E-02  0.1098180E+00
         -2   -1    0    0    0  501 -0.00000000000E+00  0.00000000000E+00  0.24281502731E+02  0.24281502731E+02  0.00000000000E+00 0.  1.
          2   -1    0    0  501    0  0.00000000000E+00 -0.00000000000E+00 -0.78138584402E+03  0.78138584402E+03  0.00000000000E+00 0.  1.
         35    2    1    2    0    0  0.00000000000E+00  0.00000000000E+00 -0.75710434129E+03  0.80566734675E+03  0.27548664218E+03 0.  0.
         25    1    3    3    0    0 -0.28333147739E+02 -0.61398512652E+02 -0.37614429255E+03  0.40057093433E+03  0.12000000000E+03 0.  0.
         25    1    3    3    0    0  0.28333147739E+02  0.61398512652E+02 -0.38096004875E+03  0.40509641242E+03  0.12000000000E+03 0.  0.
<mgrwt>
<rscale>  0 0.27548664E+03</rscale>
<asrwt>0</asrwt>
<pdfrwt beam="1">  1        2 0.12021320E+00 0.27548664E+03</pdfrwt>
<pdfrwt beam="2">  1       -2 0.37356159E-02 0.27548664E+03</pdfrwt>
<totfact> 0.11102689E+04</totfact>
</mgrwt>
</event>
<event>
 5    1  0.1139158E+001  0.2743111E+03  0.7818608E-02  0.1098837E+00
          2   -1    0    0  501    0  0.00000000000E+00  0.00000000000E+00  0.20071260097E+04  0.20071260097E+04  0.00000000000E+00 0.  1.
         -2   -1    0    0    0  501 -0.00000000000E+00 -0.00000000000E+00 -0.93724289268E+01  0.93724289268E+01  0.00000000000E+00 0.  1.
         35    2    1    2    0    0  0.00000000000E+00  0.00000000000E+00  0.19977535808E+04  0.20164984386E+04  0.27431110712E+03 0.  0.
         25    1    3    3    0    0 -0.13921358200E+02  0.57359986422E+02  0.12227757624E+04  0.12300668833E+04  0.12000000000E+03 0.  0.
         25    1    3    3    0    0  0.13921358200E+02 -0.57359986422E+02  0.77497781832E+03  0.78643155528E+03  0.12000000000E+03 0.  0.
<mgrwt>
<rscale>  0 0.27431111E+03</rscale>
<asrwt>0</asrwt>
<pdfrwt beam="1">  1        2 0.30878827E+00 0.27431111E+03</pdfrwt>
<pdfrwt beam="2">  1       -2 0.14419137E-02 0.27431111E+03</pdfrwt>
<totfact> 0.92068063E+03</totfact>
</mgrwt>
</event>
<event>
 5    1  0.1139158E+001  0.2762401E+03  0.7818608E-02  0.1097760E+00
          1   -1    0    0  501    0  0.00000000000E+00  0.00000000000E+00  0.31357436834E+04  0.31357436834E+04  0.00000000000E+00 0.  1.
         -1   -1    0    0    0  501 -0.00000000000E+00 -0.00000000000E+00 -0.60837735501E+01  0.60837735501E+01  0.00000000000E+00 0.  1.
         35    2    1    2    0    0  0.00000000000E+00  0.00000000000E+00  0.31296599099E+04  0.31418274570E+04  0.27624014539E+03 0.  0.
         25    1    3    3    0    0 -0.60640469446E+02 -0.21269536867E+02  0.18309548575E+04  0.18360079929E+04  0.12000000000E+03 0.  0.
         25    1    3    3    0    0  0.60640469446E+02  0.21269536867E+02  0.12987050524E+04  0.13058194641E+04  0.12000000000E+03 0.  0.
<mgrwt>
<rscale>  0 0.27624015E+03</rscale>
<asrwt>0</asrwt>
<pdfrwt beam="1">  1        1 0.48242082E+00 0.27624015E+03</pdfrwt>
<pdfrwt beam="2">  1       -1 0.93596766E-03 0.27624015E+03</pdfrwt>
<totfact> 0.12012173E+03</totfact>
</mgrwt>
</event>
<event>
 5    1  0.1139158E+001  0.2754127E+03  0.7818608E-02  0.1098221E+00
         -2   -1    0    0    0  501 -0.00000000000E+00  0.00000000000E+00  0.14880259068E+03  0.14880259068E+03  0.00000000000E+00 0.  1.
          2   -1    0    0  501    0  0.00000000000E+00 -0.00000000000E+00 -0.12743758613E+03  0.12743758613E+03  0.00000000000E+00 0.  1.
         35    2    1    2    0    0  0.00000000000E+00  0.00000000000E+00  0.21365004544E+02  0.27624017681E+03  0.27541273004E+03 0.  0.
         25    1    3    3    0    0  0.22686050191E+02 -0.37347513731E+02  0.62349879293E+02  0.14211615356E+03  0.12000000000E+03 0.  0.
         25    1    3    3    0    0 -0.22686050191E+02  0.37347513731E+02 -0.40984874749E+02  0.13412402325E+03  0.12000000000E+03 0.  0.
<mgrwt>
<rscale>  0 0.27541273E+03</rscale>
<asrwt>0</asrwt>
<pdfrwt beam="1">  1        2 0.19605783E-01 0.27541273E+03</pdfrwt>
<pdfrwt beam="2">  1       -2 0.22892706E-01 0.27541273E+03</pdfrwt>
<totfact> 0.46901520E+03</totfact>
</mgrwt>
</event>
<event>
 5    1  0.1139158E+001  0.2743949E+03  0.7818608E-02  0.1098790E+00
         -1   -1    0    0    0  501 -0.00000000000E+00  0.00000000000E+00  0.30551994950E+03  0.30551994950E+03  0.00000000000E+00 0. -1.
          1   -1    0    0  501    0  0.00000000000E+00 -0.00000000000E+00 -0.61610176960E+02  0.61610176960E+02  0.00000000000E+00 0. -1.
         35    2    1    2    0    0  0.00000000000E+00  0.00000000000E+00  0.24390977254E+03  0.36713012646E+03  0.27439488445E+03 0.  0.
         25    1    3    3    0    0 -0.26330733429E+02  0.53227582868E+02  0.16201910823E+03  0.21018247913E+03  0.12000000000E+03 0.  0.
         25    1    3    3    0    0  0.26330733429E+02 -0.53227582868E+02  0.81890664303E+02  0.15694764732E+03  0.12000000000E+03 0.  0.
<mgrwt>
<rscale>  0 0.27439488E+03</rscale>
<asrwt>0</asrwt>
<pdfrwt beam="1">  1        1 0.94784890E-02 0.27439488E+03</pdfrwt>
<pdfrwt beam="2">  1       -1 0.47003068E-01 0.27439488E+03</pdfrwt>
<totfact> 0.31653365E+03</totfact>
</mgrwt>
</event>
<event>
 5    1  0.1139158E+001  0.2751908E+03  0.7818608E-02  0.1098345E+00
         -1   -1    0    0    0  501 -0.00000000000E+00  0.00000000000E+00  0.18456972600E+02  0.18456972600E+02  0.00000000000E+00 0. -1.
          1   -1    0    0  501    0  0.00000000000E+00 -0.00000000000E+00 -0.10257639416E+04  0.10257639416E+04  0.00000000000E+00 0. -1.
         35    2    1    2    0    0  0.00000000000E+00  0.00000000000E+00 -0.10073069690E+04  0.10442209142E+04  0.27519082081E+03 0.  0.
         25    1    3    3    0    0 -0.15934884319E+02 -0.61223050129E+02 -0.41627083298E+03  0.43781684389E+03  0.12000000000E+03 0.  0.
         25    1    3    3    0    0  0.15934884319E+02  0.61223050129E+02 -0.59103613602E+03  0.60640407031E+03  0.12000000000E+03 0.  0.
<mgrwt>
<rscale>  0 0.27519082E+03</rscale>
<asrwt>0</asrwt>
<pdfrwt beam="1">  1        1 0.15780983E+00 0.27519082E+03</pdfrwt>
<pdfrwt beam="2">  1       -1 0.28395343E-02 0.27519082E+03</pdfrwt>
<totfact> 0.62553004E+03</totfact>
</mgrwt>
</event>
<event>
 5    1  0.1139158E+001  0.2815211E+03  0.7818608E-02  0.1094861E+00
          1   -1    0    0  501    0  0.00000000000E+00  0.00000000000E+00  0.23278443475E+03  0.23278443475E+03  0.00000000000E+00 0.  1.
         -1   -1    0    0    0  501 -0.00000000000E+00 -0.00000000000E+00 -0.85115357999E+02  0.85115357999E+02  0.00000000000E+00 0.  1.
         35    2    1    2    0    0  0.00000000000E+00  0.00000000000E+00  0.14766907675E+03  0.31789979275E+03  0.28152108625E+03 0.  0.
         25    1    3    3    0    0  0.50235180419E+02  0.37815609056E+02  0.11698111589E+03  0.17899210908E+03  0.12000000000E+03 0.  0.
         25    1    3    3    0    0 -0.50235180419E+02 -0.37815609056E+02  0.30687960867E+02  0.13890768367E+03  0.12000000000E+03 0.  0.
<mgrwt>
<rscale>  0 0.28152109E+03</rscale>
<asrwt>0</asrwt>
<pdfrwt beam="1">  1        1 0.35812990E-01 0.28152109E+03</pdfrwt>
<pdfrwt beam="2">  1       -1 0.13094671E-01 0.28152109E+03</pdfrwt>
<totfact> 0.47984914E+03</totfact>
</mgrwt>
</event>
<event>
 5    1  0.1139158E+001  0.2740861E+03  0.7818608E-02  0.1098964E+00
          2   -1    0    0  501    0  0.00000000000E+00  0.00000000000E+00  0.11864709423E+04  0.11864709423E+04  0.00000000000E+00 0. -1.
         -2   -1    0    0    0  501 -0.00000000000E+00 -0.00000000000E+00 -0.15829126773E+02  0.15829126773E+02  0.00000000000E+00 0. -1.
         35    2    1    2    0    0  0.00000000000E+00  0.00000000000E+00  0.11706418155E+04  0.12023000690E+04  0.27408611024E+03 0.  0.
         25    1    3    3    0    0 -0.13182230190E+02  0.41468045607E+02  0.80409766834E+03  0.81416609499E+03  0.12000000000E+03 0.  0.
         25    1    3    3    0    0  0.13182230190E+02 -0.41468045607E+02  0.36654414715E+03  0.38813397404E+03  0.12000000000E+03 0.  0.
<mgrwt>
<rscale>  0 0.27408611E+03</rscale>
<asrwt>0</asrwt>
<pdfrwt beam="1">  1        2 0.18253392E+00 0.27408611E+03</pdfrwt>
<pdfrwt beam="2">  1       -2 0.24352512E-02 0.27408611E+03</pdfrwt>
<totfact> 0.11735403E+04</totfact>
</mgrwt>
</event>
<event>
 5    1  0.1139158E+001  0.2754359E+03  0.7818608E-02  0.1098208E+00
         -1   -1    0    0    0  501 -0.00000000000E+00  0.00000000000E+00  0.14842990485E+02  0.14842990485E+02  0.00000000000E+00 0.  1.
          1   -1    0    0  501    0  0.00000000000E+00 -0.00000000000E+00 -0.12777901392E+04  0.12777901392E+04  0.00000000000E+00 0.  1.
         35    2    1    2    0    0  0.00000000000E+00  0.00000000000E+00 -0.12629471487E+04  0.12926331297E+04  0.27543585008E+03 0.  0.
         25    1    3    3    0    0  0.51905352282E+02 -0.41358768778E+02 -0.69111654515E+03  0.70458980430E+03  0.12000000000E+03 0.  0.
         25    1    3    3    0    0 -0.51905352282E+02  0.41358768778E+02 -0.57183060355E+03  0.58804332537E+03  0.12000000000E+03 0.  0.
<mgrwt>
<rscale>  0 0.27543585E+03</rscale>
<asrwt>0</asrwt>
<pdfrwt beam="1">  1        1 0.19658311E+00 0.27543585E+03</pdfrwt>
<pdfrwt beam="2">  1       -1 0.22835369E-02 0.27543585E+03</pdfrwt>
<totfact> 0.57046481E+03</totfact>
</mgrwt>
</event>
<event>
 5    1  0.1139158E+001  0.2772806E+03  0.7818608E-02  0.1097184E+00
         -1   -1    0    0    0  501 -0.00000000000E+00  0.00000000000E+00  0.84643509756E+02  0.84643509756E+02  0.00000000000E+00 0. -1.
          1   -1    0    0  501    0  0.00000000000E+00 -0.00000000000E+00 -0.22708330024E+03  0.22708330024E+03  0.00000000000E+00 0. -1.
         35    2    1    2    0    0  0.00000000000E+00  0.00000000000E+00 -0.14243979048E+03  0.31172680999E+03  0.27728056217E+03 0.  0.
         25    1    3    3    0    0  0.36195459284E+02  0.24507328789E+02 -0.10569784225E+02  0.12815007131E+03  0.12000000000E+03 0.  0.
         25    1    3    3    0    0 -0.36195459284E+02 -0.24507328789E+02 -0.13187000625E+03  0.18357673869E+03  0.12000000000E+03 0.  0.
<mgrwt>
<rscale>  0 0.27728056E+03</rscale>
<asrwt>0</asrwt>
<pdfrwt beam="1">  1        1 0.34935893E-01 0.27728056E+03</pdfrwt>
<pdfrwt beam="2">  1       -1 0.13022078E-01 0.27728056E+03</pdfrwt>
<totfact> 0.49915073E+03</totfact>
</mgrwt>
</event>
<event>
 5    1  0.1139158E+001  0.2700203E+03  0.7818608E-02  0.1101268E+00
          2   -1    0    0  501    0  0.00000000000E+00  0.00000000000E+00  0.35330444617E+02  0.35330444617E+02  0.00000000000E+00 0.  1.
         -2   -1    0    0    0  501 -0.00000000000E+00 -0.00000000000E+00 -0.51592165518E+03  0.51592165518E+03  0.00000000000E+00 0.  1.
         35    2    1    2    0    0  0.00000000000E+00  0.00000000000E+00 -0.48059121057E+03  0.55125209980E+03  0.27002030638E+03 0.  0.
         25    1    3    3    0    0  0.34670520030E+02  0.49058083319E+02 -0.21008378816E+03  0.24928685996E+03  0.12000000000E+03 0.  0.
         25    1    3    3    0    0 -0.34670520030E+02 -0.49058083319E+02 -0.27050742240E+03  0.30196523984E+03  0.12000000000E+03 0.  0.
<mgrwt>
<rscale>  0 0.27002031E+03</rscale>
<asrwt>0</asrwt>
<pdfrwt beam="1">  1        2 0.54354532E-02 0.27002031E+03</pdfrwt>
<pdfrwt beam="2">  1       -2 0.79372560E-01 0.27002031E+03</pdfrwt>
<totfact> 0.20342713E+03</totfact>
</mgrwt>
</event>
<event>
 5    1  0.1139158E+001  0.2744267E+03  0.7818608E-02  0.1098772E+00
         -1   -1    0    0    0  501 -0.00000000000E+00  0.00000000000E+00  0.25147092732E+03  0.25147092732E+03  0.00000000000E+00 0. -1.
          1   -1    0    0  501    0  0.00000000000E+00 -0.00000000000E+00 -0.74869521130E+02  0.74869521130E+02  0.00000000000E+00 0. -1.
         35    2    1    2    0    0  0.00000000000E+00  0.00000000000E+00  0.17660140619E+03  0.32634044845E+03  0.27442673271E+03 0.  0.
         25    1    3    3    0    0  0.66449426560E+02  0.29691876853E+01  0.86184933180E+02  0.16202526060E+03  0.12000000000E+03 0.  0.
         25    1    3    3    0    0 -0.66449426560E+02 -0.29691876853E+01  0.90416473008E+02  0.16431518785E+03  0.12000000000E+03 0.  0.
<mgrwt>
<rscale>  0 0.27442673E+03</rscale>
<asrwt>0</asrwt>
<pdfrwt beam="1">  1        1 0.11518388E-01 0.27442673E+03</pdfrwt>
<pdfrwt beam="2">  1       -1 0.38687835E-01 0.27442673E+03</pdfrwt>
<totfact> 0.34572329E+03</totfact>
</mgrwt>
</event>
<event>
 5    1  0.1139158E+001  0.2753323E+03  0.7818608E-02  0.1098266E+00
          2   -1    0    0  501    0  0.00000000000E+00  0.00000000000E+00  0.16830046120E+04  0.16830046120E+04  0.00000000000E+00 0. -1.
         -2   -1    0    0    0  501 -0.00000000000E+00 -0.00000000000E+00 -0.11260794446E+02  0.11260794446E+02  0.00000000000E+00 0. -1.
         35    2    1    2    0    0  0.00000000000E+00  0.00000000000E+00  0.16717438176E+04  0.16942654065E+04  0.27533230096E+03 0.  0.
         25    1    3    3    0    0  0.49313835907E+02  0.45688294028E+02  0.87105716595E+03  0.88185024861E+03  0.12000000000E+03 0.  0.
         25    1    3    3    0    0 -0.49313835907E+02 -0.45688294028E+02  0.80068665165E+03  0.81241515788E+03  0.12000000000E+03 0.  0.
<mgrwt>
<rscale>  0 0.27533230E+03</rscale>
<asrwt>0</asrwt>
<pdfrwt beam="1">  1        2 0.25892359E+00 0.27533230E+03</pdfrwt>
<pdfrwt beam="2">  1       -2 0.17324312E-02 0.27533230E+03</pdfrwt>
<totfact> 0.10416238E+04</totfact>
</mgrwt>
</event>
<event>
 5    1  0.1139158E+001  0.2740950E+03  0.7818608E-02  0.1098959E+00
          2   -1    0    0  501    0  0.00000000000E+00  0.00000000000E+00  0.24688326276E+03  0.24688326276E+03  0.00000000000E+00 0.  1.
         -2   -1    0    0    0  501 -0.00000000000E+00 -0.00000000000E+00 -0.76076485985E+02  0.76076485985E+02  0.00000000000E+00 0.  1.
         35    2    1    2    0    0  0.00000000000E+00  0.00000000000E+00  0.17080677677E+03  0.32295974874E+03  0.27409495493E+03 0.  0.
         25    1    3    3    0    0  0.62136122170E+02  0.20420473167E+02  0.97426298239E+02  0.16783854441E+03  0.12000000000E+03 0.  0.
         25    1    3    3    0    0 -0.62136122170E+02 -0.20420473167E+02  0.73380478536E+02  0.15512120433E+03  0.12000000000E+03 0.  0.
<mgrwt>
<rscale>  0 0.27409495E+03</rscale>
<asrwt>0</asrwt>
<pdfrwt beam="1">  1        2 0.37982040E-01 0.27409495E+03</pdfrwt>
<pdfrwt beam="2">  1       -2 0.11704075E-01 0.27409495E+03</pdfrwt>
<totfact> 0.69074137E+03</totfact>
</mgrwt>
</event>
<event>
 5    1  0.1139158E+001  0.2705992E+03  0.7818608E-02  0.1100937E+00
          2   -1    0    0  501    0  0.00000000000E+00  0.00000000000E+00  0.78186975003E+03  0.78186975003E+03  0.00000000000E+00 0.  1.
         -2   -1    0    0    0  501 -0.00000000000E+00 -0.00000000000E+00 -0.23413086646E+02  0.23413086646E+02  0.00000000000E+00 0.  1.
         35    2    1    2    0    0  0.00000000000E+00  0.00000000000E+00  0.75845666339E+03  0.80528283668E+03  0.27059921806E+03 0.  0.
         25    1    3    3    0    0  0.60355994674E+02 -0.14511112605E+02  0.35765221806E+03  0.38231992829E+03  0.12000000000E+03 0.  0.
         25    1    3    3    0    0 -0.60355994674E+02  0.14511112605E+02  0.40080444532E+03  0.42296290839E+03  0.12000000000E+03 0.  0.
<mgrwt>
<rscale>  0 0.27059922E+03</rscale>
<asrwt>0</asrwt>
<pdfrwt beam="1">  1        2 0.12028763E+00 0.27059922E+03</pdfrwt>
<pdfrwt beam="2">  1       -2 0.36020139E-02 0.27059922E+03</pdfrwt>
<totfact> 0.11708891E+04</totfact>
</mgrwt>
</event>
<event>
 5    1  0.1139158E+001  0.2751587E+03  0.7818608E-02  0.1098363E+00
          2   -1    0    0  501    0  0.00000000000E+00  0.00000000000E+00  0.89129737922E+03  0.89129737922E+03  0.00000000000E+00 0. -1.
         -2   -1    0    0    0  501 -0.00000000000E+00 -0.00000000000E+00 -0.21236547945E+02  0.21236547945E+02  0.00000000000E+00 0. -1.
         35    2    1    2    0    0  0.00000000000E+00  0.00000000000E+00  0.87006083127E+03  0.91253392716E+03  0.27515871440E+03 0.  0.
         25    1    3    3    0    0  0.22712251883E+01  0.55332469803E+01  0.65731038539E+03  0.66820110598E+03  0.12000000000E+03 0.  0.
         25    1    3    3    0    0 -0.22712251883E+01 -0.55332469803E+01  0.21275044588E+03  0.24433282119E+03  0.12000000000E+03 0.  0.
<mgrwt>
<rscale>  0 0.27515871E+03</rscale>
<asrwt>0</asrwt>
<pdfrwt beam="1">  1        2 0.13712264E+00 0.27515871E+03</pdfrwt>
<pdfrwt beam="2">  1       -2 0.32671619E-02 0.27515871E+03</pdfrwt>
<totfact> 0.11439988E+04</totfact>
</mgrwt>
</event>
<event>
 5    1  0.1139158E+001  0.2749645E+03  0.7818608E-02  0.1098471E+00
          2   -1    0    0  501    0  0.00000000000E+00  0.00000000000E+00  0.11682426801E+04  0.11682426801E+04  0.00000000000E+00 0. -1.
         -2   -1    0    0    0  501 -0.00000000000E+00 -0.00000000000E+00 -0.16179316792E+02  0.16179316792E+02  0.00000000000E+00 0. -1.
         35    2    1    2    0    0  0.00000000000E+00  0.00000000000E+00  0.11520633633E+04  0.11844219969E+04  0.27496449525E+03 0.  0.
         25    1    3    3    0    0 -0.10282309137E+02  0.42451294977E+02  0.79540080027E+03  0.80558691114E+03  0.12000000000E+03 0.  0.
         25    1    3    3    0    0  0.10282309137E+02 -0.42451294977E+02  0.35666256306E+03  0.37883508578E+03  0.12000000000E+03 0.  0.
<mgrwt>
<rscale>  0 0.27496450E+03</rscale>
<asrwt>0</asrwt>
<pdfrwt beam="1">  1        2 0.17972958E+00 0.27496450E+03</pdfrwt>
<pdfrwt beam="2">  1       -2 0.24891266E-02 0.27496450E+03</pdfrwt>
<totfact> 0.11638807E+04</totfact>
</mgrwt>
</event>
<event>
 5    1  0.1139158E+001  0.2754753E+03  0.7818608E-02  0.1098186E+00
          2   -1    0    0  501    0  0.00000000000E+00  0.00000000000E+00  0.11256623329E+04  0.11256623329E+04  0.00000000000E+00 0. -1.
         -2   -1    0    0    0  501 -0.00000000000E+00 -0.00000000000E+00 -0.16853776533E+02  0.16853776533E+02  0.00000000000E+00 0. -1.
         35    2    1    2    0    0  0.00000000000E+00  0.00000000000E+00  0.11088085563E+04  0.11425161094E+04  0.27547530858E+03 0.  0.
         25    1    3    3    0    0  0.80575915143E+01  0.44666134079E+02  0.76225962982E+03  0.77298106805E+03  0.12000000000E+03 0.  0.
         25    1    3    3    0    0 -0.80575915143E+01 -0.44666134079E+02  0.34654892650E+03  0.36953504133E+03  0.12000000000E+03 0.  0.
<mgrwt>
<rscale>  0 0.27547531E+03</rscale>
<asrwt>0</asrwt>
<pdfrwt beam="1">  1        2 0.17317876E+00 0.27547531E+03</pdfrwt>
<pdfrwt beam="2">  1       -2 0.25928896E-02 0.27547531E+03</pdfrwt>
<totfact> 0.11595041E+04</totfact>
</mgrwt>
</event>
<event>
 5    1  0.1139158E+001  0.2746061E+03  0.7818608E-02  0.1098672E+00
         -2   -1    0    0    0  501 -0.00000000000E+00  0.00000000000E+00  0.52033080664E+03  0.52033080664E+03  0.00000000000E+00 0. -1.
          2   -1    0    0  501    0  0.00000000000E+00 -0.00000000000E+00 -0.36231029738E+02  0.36231029738E+02  0.00000000000E+00 0. -1.
         35    2    1    2    0    0  0.00000000000E+00  0.00000000000E+00  0.48409977690E+03  0.55656183638E+03  0.27460605186E+03 0.  0.
         25    1    3    3    0    0  0.34117280426E+02 -0.13419446518E+02  0.12905797669E+03  0.18000008810E+03  0.12000000000E+03 0.  0.
         25    1    3    3    0    0 -0.34117280426E+02  0.13419446518E+02  0.35504180021E+03  0.37656174828E+03  0.12000000000E+03 0.  0.
<mgrwt>
<rscale>  0 0.27460605E+03</rscale>
<asrwt>0</asrwt>
<pdfrwt beam="1">  1        2 0.55740050E-02 0.27460605E+03</pdfrwt>
<pdfrwt beam="2">  1       -2 0.80050888E-01 0.27460605E+03</pdfrwt>
<totfact> 0.19325222E+03</totfact>
</mgrwt>
</event>
<event>
 5    1  0.1139158E+001  0.2753178E+03  0.7818608E-02  0.1098274E+00
          4   -1    0    0  501    0  0.00000000000E+00  0.00000000000E+00  0.18999139214E+03  0.18999139214E+03  0.00000000000E+00 0. -1.
         -4   -1    0    0    0  501 -0.00000000000E+00 -0.00000000000E+00 -0.99741207384E+02  0.99741207384E+02  0.00000000000E+00 0. -1.
         35    2    1    2    0    0  0.00000000000E+00  0.00000000000E+00  0.90250184756E+02  0.28973259952E+03  0.27531778616E+03 0.  0.
         25    1    3    3    0    0 -0.64040788100E+02  0.10121357203E+02  0.25541454340E+02  0.13876609925E+03  0.12000000000E+03 0.  0.
         25    1    3    3    0    0  0.64040788100E+02 -0.10121357203E+02  0.64708730416E+02  0.15096650027E+03  0.12000000000E+03 0.  0.
<mgrwt>
<rscale>  0 0.27531779E+03</rscale>
<asrwt>0</asrwt>
<pdfrwt beam="1">  1        4 0.29229445E-01 0.27531779E+03</pdfrwt>
<pdfrwt beam="2">  1       -4 0.15344801E-01 0.27531779E+03</pdfrwt>
<totfact> 0.75881210E+02</totfact>
</mgrwt>
</event>
<event>
 4    1  0.1139158E+001  0.3000781E+03  0.7818608E-02  0.1085202E+00
         -1   -1    0    0    0  501 -0.00000000000E+00  0.00000000000E+00  0.15772406011E+02  0.15772406011E+02  0.00000000000E+00 0.  1.
          1   -1    0    0  501    0  0.00000000000E+00 -0.00000000000E+00 -0.14272845583E+04  0.14272845583E+04  0.00000000000E+00 0.  1.
         25    1    1    2    0    0  0.80566306925E+02  0.54535618841E+01 -0.51393787001E+03  0.53390336708E+03  0.12000000000E+03 0.  0.
         25    1    1    2    0    0 -0.80566306925E+02 -0.54535618841E+01 -0.89757428224E+03  0.90915359719E+03  0.12000000000E+03 0.  0.
<mgrwt>
<rscale>  0 0.30007807E+03</rscale>
<asrwt>0</asrwt>
<pdfrwt beam="1">  1        1 0.21958222E+00 0.30007807E+03</pdfrwt>
<pdfrwt beam="2">  1       -1 0.24265242E-02 0.30007807E+03</pdfrwt>
<totfact> 0.41342436E+03</totfact>
</mgrwt>
</event>
<event>
 5    1  0.1139158E+001  0.2748195E+03  0.7818608E-02  0.1098553E+00
          2   -1    0    0  501    0  0.00000000000E+00  0.00000000000E+00  0.53533055138E+02  0.53533055138E+02  0.00000000000E+00 0.  1.
         -2   -1    0    0    0  501 -0.00000000000E+00 -0.00000000000E+00 -0.35270626812E+03  0.35270626812E+03  0.00000000000E+00 0.  1.
         35    2    1    2    0    0  0.00000000000E+00  0.00000000000E+00 -0.29917321298E+03  0.40623932326E+03  0.27481953423E+03 0.  0.
         25    1    3    3    0    0 -0.30704711673E+02  0.45873471767E+02 -0.93604046991E+02  0.16189154500E+03  0.12000000000E+03 0.  0.
         25    1    3    3    0    0  0.30704711673E+02 -0.45873471767E+02 -0.20556916599E+03  0.24434777825E+03  0.12000000000E+03 0.  0.
<mgrwt>
<rscale>  0 0.27481953E+03</rscale>
<asrwt>0</asrwt>
<pdfrwt beam="1">  1        2 0.82358547E-02 0.27481953E+03</pdfrwt>
<pdfrwt beam="2">  1       -2 0.54262503E-01 0.27481953E+03</pdfrwt>
<totfact> 0.26574854E+03</totfact>
</mgrwt>
</event>
<event>
 5    1  0.1139158E+001  0.2746829E+03  0.7818608E-02  0.1098629E+00
          1   -1    0    0  501    0  0.00000000000E+00  0.00000000000E+00  0.44910393474E+03  0.44910393474E+03  0.00000000000E+00 0.  1.
         -1   -1    0    0    0  501 -0.00000000000E+00 -0.00000000000E+00 -0.42000698501E+02  0.42000698501E+02  0.00000000000E+00 0.  1.
         35    2    1    2    0    0  0.00000000000E+00  0.00000000000E+00  0.40710323624E+03  0.49110463324E+03  0.27468293692E+03 0.  0.
         25    1    3    3    0    0  0.44537033835E+02 -0.41473491420E+01  0.11484004229E+03  0.17201448544E+03  0.12000000000E+03 0.  0.
         25    1    3    3    0    0 -0.44537033835E+02  0.41473491420E+01  0.29226319394E+03  0.31909014780E+03  0.12000000000E+03 0.  0.
<mgrwt>
<rscale>  0 0.27468294E+03</rscale>
<asrwt>0</asrwt>
<pdfrwt beam="1">  1        1 0.69092910E-01 0.27468294E+03</pdfrwt>
<pdfrwt beam="2">  1       -1 0.64616462E-02 0.27468294E+03</pdfrwt>
<totfact> 0.61843334E+03</totfact>
</mgrwt>
</event>
<event>
 5    1  0.1139158E+001  0.2753429E+03  0.7818608E-02  0.1098260E+00
         -2   -1    0    0    0  501 -0.00000000000E+00  0.00000000000E+00  0.85358690516E+02  0.85358690516E+02  0.00000000000E+00 0. -1.
          2   -1    0    0  501    0  0.00000000000E+00 -0.00000000000E+00 -0.22204447499E+03  0.22204447499E+03  0.00000000000E+00 0. -1.
         35    2    1    2    0    0  0.00000000000E+00  0.00000000000E+00 -0.13668578448E+03  0.30740316551E+03  0.27534288167E+03 0.  0.
         25    1    3    3    0    0 -0.42056897500E+02  0.47661640895E+02 -0.43055862868E+02  0.14245779013E+03  0.12000000000E+03 0.  0.
         25    1    3    3    0    0  0.42056897500E+02 -0.47661640895E+02 -0.93629921612E+02  0.16494537539E+03  0.12000000000E+03 0.  0.
<mgrwt>
<rscale>  0 0.27534288E+03</rscale>
<asrwt>0</asrwt>
<pdfrwt beam="1">  1        2 0.34160689E-01 0.27534288E+03</pdfrwt>
<pdfrwt beam="2">  1       -2 0.13132106E-01 0.27534288E+03</pdfrwt>
<totfact> 0.64318047E+03</totfact>
</mgrwt>
</event>
<event>
 5    1  0.1139158E+001  0.2796311E+03  0.7818608E-02  0.1095891E+00
          2   -1    0    0  501    0  0.00000000000E+00  0.00000000000E+00  0.79450248527E+03  0.79450248527E+03  0.00000000000E+00 0. -1.
         -2   -1    0    0    0  501 -0.00000000000E+00 -0.00000000000E+00 -0.24604561078E+02  0.24604561078E+02  0.00000000000E+00 0. -1.
         35    2    1    2    0    0  0.00000000000E+00  0.00000000000E+00  0.76989792420E+03  0.81910704635E+03  0.27963107786E+03 0.  0.
         25    1    3    3    0    0 -0.55479952791E+02  0.21375021351E+02  0.26728717675E+03  0.29896045148E+03  0.12000000000E+03 0.  0.
         25    1    3    3    0    0  0.55479952791E+02 -0.21375021351E+02  0.50261074745E+03  0.52014659487E+03  0.12000000000E+03 0.  0.
<mgrwt>
<rscale>  0 0.27963108E+03</rscale>
<asrwt>0</asrwt>
<pdfrwt beam="1">  1        2 0.12223113E+00 0.27963108E+03</pdfrwt>
<pdfrwt beam="2">  1       -2 0.37853177E-02 0.27963108E+03</pdfrwt>
<totfact> 0.10663152E+04</totfact>
</mgrwt>
</event>
<event>
 5    1  0.1139158E+001  0.2753468E+03  0.7818608E-02  0.1098258E+00
         -1   -1    0    0    0  501 -0.00000000000E+00  0.00000000000E+00  0.16292115975E+03  0.16292115975E+03  0.00000000000E+00 0.  1.
          1   -1    0    0  501    0  0.00000000000E+00 -0.00000000000E+00 -0.11633828173E+03  0.11633828173E+03  0.00000000000E+00 0.  1.
         35    2    1    2    0    0  0.00000000000E+00  0.00000000000E+00  0.46582878013E+02  0.27925944148E+03  0.27534681972E+03 0.  0.
         25    1    3    3    0    0 -0.56357277450E+01 -0.34124942041E+02  0.82060452696E+02  0.14943289796E+03  0.12000000000E+03 0.  0.
         25    1    3    3    0    0  0.56357277450E+01  0.34124942041E+02 -0.35477574684E+02  0.12982654352E+03  0.12000000000E+03 0.  0.
<mgrwt>
<rscale>  0 0.27534682E+03</rscale>
<asrwt>0</asrwt>
<pdfrwt beam="1">  1        1 0.17898197E-01 0.27534682E+03</pdfrwt>
<pdfrwt beam="2">  1       -1 0.25064794E-01 0.27534682E+03</pdfrwt>
<totfact> 0.40689984E+03</totfact>
</mgrwt>
</event>
<event>
 5    1  0.1139158E+001  0.2616338E+03  0.7818608E-02  0.1106166E+00
         -2   -1    0    0    0  501 -0.00000000000E+00  0.00000000000E+00  0.65628090458E+02  0.65628090458E+02  0.00000000000E+00 0.  1.
          2   -1    0    0  501    0  0.00000000000E+00 -0.00000000000E+00 -0.26075812707E+03  0.26075812707E+03  0.00000000000E+00 0.  1.
         35    2    1    2    0    0  0.00000000000E+00  0.00000000000E+00 -0.19513003661E+03  0.32638621753E+03  0.26163377420E+03 0.  0.
         25    1    3    3    0    0  0.11783999899E+02 -0.38798343366E+02 -0.56779755729E+02  0.13880963498E+03  0.12000000000E+03 0.  0.
         25    1    3    3    0    0 -0.11783999899E+02  0.38798343366E+02 -0.13835028088E+03  0.18757658255E+03  0.12000000000E+03 0.  0.
<mgrwt>
<rscale>  0 0.26163377E+03</rscale>
<asrwt>0</asrwt>
<pdfrwt beam="1">  1        2 0.40116634E-01 0.26163377E+03</pdfrwt>
<pdfrwt beam="2">  1       -2 0.10096630E-01 0.26163377E+03</pdfrwt>
<totfact> 0.82325518E+03</totfact>
</mgrwt>
</event>
<event>
 5    1  0.1139158E+001  0.2724633E+03  0.7818608E-02  0.1099878E+00
         -1   -1    0    0    0  501 -0.00000000000E+00  0.00000000000E+00  0.38422385347E+02  0.38422385347E+02  0.00000000000E+00 0.  1.
          1   -1    0    0  501    0  0.00000000000E+00 -0.00000000000E+00 -0.48302729673E+03  0.48302729673E+03  0.00000000000E+00 0.  1.
         35    2    1    2    0    0  0.00000000000E+00  0.00000000000E+00 -0.44460491138E+03  0.52144968208E+03  0.27246328874E+03 0.  0.
         25    1    3    3    0    0 -0.58781459897E+02  0.73232416299E+00 -0.17154921341E+03  0.21745098057E+03  0.12000000000E+03 0.  0.
         25    1    3    3    0    0  0.58781459897E+02 -0.73232416299E+00 -0.27305569797E+03  0.30399870151E+03  0.12000000000E+03 0.  0.
<mgrwt>
<rscale>  0 0.27246329E+03</rscale>
<asrwt>0</asrwt>
<pdfrwt beam="1">  1        1 0.74311894E-01 0.27246329E+03</pdfrwt>
<pdfrwt beam="2">  1       -1 0.59111360E-02 0.27246329E+03</pdfrwt>
<totfact> 0.64285954E+03</totfact>
</mgrwt>
</event>
<event>
 5    1  0.1139158E+001  0.2701238E+03  0.7818608E-02  0.1101209E+00
          2   -1    0    0  501    0  0.00000000000E+00  0.00000000000E+00  0.26870105828E+03  0.26870105828E+03  0.00000000000E+00 0. -1.
         -2   -1    0    0    0  501 -0.00000000000E+00 -0.00000000000E+00 -0.67888533208E+02  0.67888533208E+02  0.00000000000E+00 0. -1.
         35    2    1    2    0    0  0.00000000000E+00  0.00000000000E+00  0.20081252507E+03  0.33658959149E+03  0.27012382878E+03 0.  0.
         25    1    3    3    0    0  0.31675693262E+02  0.12863427156E+02  0.16482755270E+03  0.20672914509E+03  0.12000000000E+03 0.  0.
         25    1    3    3    0    0 -0.31675693262E+02 -0.12863427156E+02  0.35984972374E+02  0.12986044640E+03  0.12000000000E+03 0.  0.
<mgrwt>
<rscale>  0 0.27012383E+03</rscale>
<asrwt>0</asrwt>
<pdfrwt beam="1">  1        2 0.41338624E-01 0.27012383E+03</pdfrwt>
<pdfrwt beam="2">  1       -2 0.10444390E-01 0.27012383E+03</pdfrwt>
<totfact> 0.75624543E+03</totfact>
</mgrwt>
</event>
<event>
 5    1  0.1139158E+001  0.2752171E+03  0.7818608E-02  0.1098330E+00
         -1   -1    0    0    0  501 -0.00000000000E+00  0.00000000000E+00  0.32657950311E+02  0.32657950311E+02  0.00000000000E+00 0. -1.
          1   -1    0    0  501    0  0.00000000000E+00 -0.00000000000E+00 -0.57983184988E+03  0.57983184988E+03  0.00000000000E+00 0. -1.
         35    2    1    2    0    0  0.00000000000E+00  0.00000000000E+00 -0.54717389957E+03  0.61248980019E+03  0.27521714875E+03 0.  0.
         25    1    3    3    0    0 -0.57185023334E+02  0.16312882809E+02 -0.20321527333E+03  0.24337765788E+03  0.12000000000E+03 0.  0.
         25    1    3    3    0    0  0.57185023334E+02 -0.16312882809E+02 -0.34395862623E+03  0.36911214231E+03  0.12000000000E+03 0.  0.
<mgrwt>
<rscale>  0 0.27521715E+03</rscale>
<asrwt>0</asrwt>
<pdfrwt beam="1">  1        1 0.89204904E-01 0.27521715E+03</pdfrwt>
<pdfrwt beam="2">  1       -1 0.50242998E-02 0.27521715E+03</pdfrwt>
<totfact> 0.64204908E+03</totfact>
</mgrwt>
</event>
<event>
 5    1  0.1139158E+001  0.2750740E+03  0.7818608E-02  0.1098410E+00
          2   -1    0    0  501    0  0.00000000000E+00  0.00000000000E+00  0.10628803537E+04  0.10628803537E+04  0.00000000000E+00 0. -1.
         -2   -1    0    0    0  501 -0.00000000000E+00 -0.00000000000E+00 -0.17797327834E+02  0.17797327834E+02  0.00000000000E+00 0. -1.
         35    2    1    2    0    0  0.00000000000E+00  0.00000000000E+00  0.10450830258E+04  0.10806776815E+04  0.27507402714E+03 0.  0.
         25    1    3    3    0    0  0.59389050575E+02  0.29267853116E+02  0.56780896201E+03  0.58411530017E+03  0.12000000000E+03 0.  0.
         25    1    3    3    0    0 -0.59389050575E+02 -0.29267853116E+02  0.47727406383E+03  0.49656238134E+03  0.12000000000E+03 0.  0.
<mgrwt>
<rscale>  0 0.27507403E+03</rscale>
<asrwt>0</asrwt>
<pdfrwt beam="1">  1        2 0.16352000E+00 0.27507403E+03</pdfrwt>
<pdfrwt beam="2">  1       -2 0.27380513E-02 0.27507403E+03</pdfrwt>
<totfact> 0.11645060E+04</totfact>
</mgrwt>
</event>
<event>
 5    1  0.1139158E+001  0.2751127E+03  0.7818608E-02  0.1098389E+00
          1   -1    0    0  501    0  0.00000000000E+00  0.00000000000E+00  0.31024959413E+02  0.31024959413E+02  0.00000000000E+00 0.  1.
         -1   -1    0    0    0  501 -0.00000000000E+00 -0.00000000000E+00 -0.60988811919E+03  0.60988811919E+03  0.00000000000E+00 0.  1.
         35    2    1    2    0    0  0.00000000000E+00  0.00000000000E+00 -0.57886315978E+03  0.64091307860E+03  0.27511273431E+03 0.  0.
         25    1    3    3    0    0 -0.66610665568E+02 -0.57606541846E+01 -0.27269896567E+03  0.30534389102E+03  0.12000000000E+03 0.  0.
         25    1    3    3    0    0  0.66610665568E+02  0.57606541846E+01 -0.30616419411E+03  0.33556918759E+03  0.12000000000E+03 0.  0.
<mgrwt>
<rscale>  0 0.27511273E+03</rscale>
<asrwt>0</asrwt>
<pdfrwt beam="1">  1        1 0.47730711E-02 0.27511273E+03</pdfrwt>
<pdfrwt beam="2">  1       -1 0.93828933E-01 0.27511273E+03</pdfrwt>
<totfact> 0.20583603E+03</totfact>
</mgrwt>
</event>
<event>
 5    1  0.1139158E+001  0.2759830E+03  0.7818608E-02  0.1097903E+00
          2   -1    0    0  501    0  0.00000000000E+00  0.00000000000E+00  0.19880718089E+04  0.19880718089E+04  0.00000000000E+00 0.  1.
         -2   -1    0    0    0  501 -0.00000000000E+00 -0.00000000000E+00 -0.95779504347E+01  0.95779504347E+01  0.00000000000E+00 0.  1.
         35    2    1    2    0    0  0.00000000000E+00  0.00000000000E+00  0.19784938585E+04  0.19976497593E+04  0.27598299401E+03 0.  0.
         25    1    3    3    0    0  0.50273254265E+02 -0.33207638467E+02  0.75903849261E+03  0.77082396214E+03  0.12000000000E+03 0.  0.
         25    1    3    3    0    0 -0.50273254265E+02  0.33207638467E+02  0.12194553659E+04  0.12268257972E+04  0.12000000000E+03 0.  0.
<mgrwt>
<rscale>  0 0.27598299E+03</rscale>
<asrwt>0</asrwt>
<pdfrwt beam="1">  1        2 0.30585687E+00 0.27598299E+03</pdfrwt>
<pdfrwt beam="2">  1       -2 0.14735324E-02 0.27598299E+03</pdfrwt>
<totfact> 0.91281743E+03</totfact>
</mgrwt>
</event>
<event>
 5    1  0.1139158E+001  0.2753738E+03  0.7818608E-02  0.1098243E+00
         -2   -1    0    0    0  501 -0.00000000000E+00  0.00000000000E+00  0.17380329640E+03  0.17380329640E+03  0.00000000000E+00 0. -1.
          2   -1    0    0  501    0  0.00000000000E+00 -0.00000000000E+00 -0.10907547329E+03  0.10907547329E+03  0.00000000000E+00 0. -1.
         35    2    1    2    0    0  0.00000000000E+00  0.00000000000E+00  0.64727823113E+02  0.28287876968E+03  0.27537375919E+03 0.  0.
         25    1    3    3    0    0  0.63893670952E+02 -0.12653328141E+02  0.50600747349E+02  0.14561230557E+03  0.12000000000E+03 0.  0.
         25    1    3    3    0    0 -0.63893670952E+02  0.12653328141E+02  0.14127075764E+02  0.13726646411E+03  0.12000000000E+03 0.  0.
<mgrwt>
<rscale>  0 0.27537376E+03</rscale>
<asrwt>0</asrwt>
<pdfrwt beam="1">  1        2 0.16780842E-01 0.27537376E+03</pdfrwt>
<pdfrwt beam="2">  1       -2 0.26738969E-01 0.27537376E+03</pdfrwt>
<totfact> 0.42721650E+03</totfact>
</mgrwt>
</event>
<event>
 5    1  0.1139158E+001  0.2747670E+03  0.7818608E-02  0.1098582E+00
         -1   -1    0    0    0  501 -0.00000000000E+00  0.00000000000E+00  0.30618223361E+02  0.30618223361E+02  0.00000000000E+00 0. -1.
          1   -1    0    0  501    0  0.00000000000E+00 -0.00000000000E+00 -0.61643775319E+03  0.61643775319E+03  0.00000000000E+00 0. -1.
         35    2    1    2    0    0  0.00000000000E+00  0.00000000000E+00 -0.58581952983E+03  0.64705597655E+03  0.27476701996E+03 0.  0.
         25    1    3    3    0    0 -0.31776616789E+02 -0.45617590644E+02 -0.20531693929E+03  0.24422482165E+03  0.12000000000E+03 0.  0.
         25    1    3    3    0    0  0.31776616789E+02  0.45617590644E+02 -0.38050259054E+03  0.40283115490E+03  0.12000000000E+03 0.  0.
<mgrwt>
<rscale>  0 0.27476702E+03</rscale>
<asrwt>0</asrwt>
<pdfrwt beam="1">  1        1 0.94836575E-01 0.27476702E+03</pdfrwt>
<pdfrwt beam="2">  1       -1 0.47104960E-02 0.27476702E+03</pdfrwt>
<totfact> 0.64950081E+03</totfact>
</mgrwt>
</event>
<event>
 5    1  0.1139158E+001  0.2749725E+03  0.7818608E-02  0.1098467E+00
          2   -1    0    0  501    0  0.00000000000E+00  0.00000000000E+00  0.12143222207E+03  0.12143222207E+03  0.00000000000E+00 0.  1.
         -2   -1    0    0    0  501 -0.00000000000E+00 -0.00000000000E+00 -0.15566270578E+03  0.15566270578E+03  0.00000000000E+00 0.  1.
         35    2    1    2    0    0  0.00000000000E+00  0.00000000000E+00 -0.34230483704E+02  0.27709492785E+03  0.27497249503E+03 0.  0.
         25    1    3    3    0    0 -0.49583428880E+02 -0.30981760908E+02 -0.50294789001E+02  0.14264624681E+03  0.12000000000E+03 0.  0.
         25    1    3    3    0    0  0.49583428880E+02  0.30981760908E+02  0.16064305297E+02  0.13444868104E+03  0.12000000000E+03 0.  0.
<mgrwt>
<rscale>  0 0.27497250E+03</rscale>
<asrwt>0</asrwt>
<pdfrwt beam="1">  1        2 0.18681880E-01 0.27497250E+03</pdfrwt>
<pdfrwt beam="2">  1       -2 0.23948109E-01 0.27497250E+03</pdfrwt>
<totfact> 0.45822739E+03</totfact>
</mgrwt>
</event>
<event>
 5    1  0.1139158E+001  0.2850768E+03  0.7818608E-02  0.1092948E+00
          2   -1    0    0  501    0  0.00000000000E+00  0.00000000000E+00  0.18524944026E+03  0.18524944026E+03  0.00000000000E+00 0. -1.
         -2   -1    0    0    0  501 -0.00000000000E+00 -0.00000000000E+00 -0.10967478598E+03  0.10967478598E+03  0.00000000000E+00 0. -1.
         35    2    1    2    0    0  0.00000000000E+00  0.00000000000E+00  0.75574654279E+02  0.29492422625E+03  0.28507678064E+03 0.  0.
         25    1    3    3    0    0 -0.53094417287E+02 -0.27731699682E+02 -0.12140804948E+02  0.13466797488E+03  0.12000000000E+03 0.  0.
         25    1    3    3    0    0  0.53094417287E+02  0.27731699682E+02  0.87715459227E+02  0.16025625137E+03  0.12000000000E+03 0.  0.
<mgrwt>
<rscale>  0 0.28507678E+03</rscale>
<asrwt>0</asrwt>
<pdfrwt beam="1">  1        2 0.28499914E-01 0.28507678E+03</pdfrwt>
<pdfrwt beam="2">  1       -2 0.16873044E-01 0.28507678E+03</pdfrwt>
<totfact> 0.51903204E+03</totfact>
</mgrwt>
</event>
<event>
 5    1  0.1139158E+001  0.2751995E+03  0.7818608E-02  0.1098340E+00
         -1   -1    0    0    0  501 -0.00000000000E+00  0.00000000000E+00  0.46111485870E+01  0.46111485870E+01  0.00000000000E+00 0.  1.
          1   -1    0    0  501    0  0.00000000000E+00 -0.00000000000E+00 -0.41060697219E+04  0.41060697219E+04  0.00000000000E+00 0.  1.
         35    2    1    2    0    0  0.00000000000E+00  0.00000000000E+00 -0.41014585733E+04  0.41106808705E+04  0.27519954648E+03 0.  0.
         25    1    3    3    0    0  0.15250550929E+02  0.42711492152E+02 -0.27941174035E+04  0.27970607636E+04  0.12000000000E+03 0.  0.
         25    1    3    3    0    0 -0.15250550929E+02 -0.42711492152E+02 -0.13073411698E+04  0.13136201069E+04  0.12000000000E+03 0.  0.
<mgrwt>
<rscale>  0 0.27519955E+03</rscale>
<asrwt>0</asrwt>
<pdfrwt beam="1">  1        1 0.63170354E+00 0.27519955E+03</pdfrwt>
<pdfrwt beam="2">  1       -1 0.70940690E-03 0.27519955E+03</pdfrwt>
<totfact> 0.31441918E+02</totfact>
</mgrwt>
</event>
<event>
 5    1  0.1139158E+001  0.2736821E+03  0.7818608E-02  0.1099191E+00
          2   -1    0    0  501    0  0.00000000000E+00  0.00000000000E+00  0.61045807721E+03  0.61045807721E+03  0.00000000000E+00 0.  1.
         -2   -1    0    0    0  501 -0.00000000000E+00 -0.00000000000E+00 -0.30674451580E+02  0.30674451580E+02  0.00000000000E+00 0.  1.
         35    2    1    2    0    0  0.00000000000E+00  0.00000000000E+00  0.57978362563E+03  0.64113252879E+03  0.27368205444E+03 0.  0.
         25    1    3    3    0    0 -0.11663261195E+02 -0.64701952866E+02  0.28577229075E+03  0.31684093253E+03  0.12000000000E+03 0.  0.
         25    1    3    3    0    0  0.11663261195E+02  0.64701952866E+02  0.29401133489E+03  0.32429159627E+03  0.12000000000E+03 0.  0.
<mgrwt>
<rscale>  0 0.27368205E+03</rscale>
<asrwt>0</asrwt>
<pdfrwt beam="1">  1        2 0.93916618E-01 0.27368205E+03</pdfrwt>
<pdfrwt beam="2">  1       -2 0.47191469E-02 0.27368205E+03</pdfrwt>
<totfact> 0.10520936E+04</totfact>
</mgrwt>
</event>
<event>
 5    1  0.1139158E+001  0.2738823E+03  0.7818608E-02  0.1099078E+00
         -3   -1    0    0    0  501 -0.00000000000E+00  0.00000000000E+00  0.58376775736E+02  0.58376775736E+02  0.00000000000E+00 0.  1.
          3   -1    0    0  501    0  0.00000000000E+00 -0.00000000000E+00 -0.32123863361E+03  0.32123863361E+03  0.00000000000E+00 0.  1.
         35    2    1    2    0    0  0.00000000000E+00  0.00000000000E+00 -0.26286185788E+03  0.37961540935E+03  0.27388227889E+03 0.  0.
         25    1    3    3    0    0  0.27538979592E+02  0.87618031617E+01 -0.49223704847E+02  0.13288392570E+03  0.12000000000E+03 0.  0.
         25    1    3    3    0    0 -0.27538979592E+02 -0.87618031617E+01 -0.21363815303E+03  0.24673148365E+03  0.12000000000E+03 0.  0.
<mgrwt>
<rscale>  0 0.27388228E+03</rscale>
<asrwt>0</asrwt>
<pdfrwt beam="1">  1        3 0.49421329E-01 0.27388228E+03</pdfrwt>
<pdfrwt beam="2">  1       -3 0.89810423E-02 0.27388228E+03</pdfrwt>
<totfact> 0.91695276E+02</totfact>
</mgrwt>
</event>
<event>
 5    1  0.1139158E+001  0.2776514E+03  0.7818608E-02  0.1096979E+00
         -2   -1    0    0    0  501 -0.00000000000E+00  0.00000000000E+00  0.13589153513E+03  0.13589153513E+03  0.00000000000E+00 0. -1.
          2   -1    0    0  501    0  0.00000000000E+00 -0.00000000000E+00 -0.14182321627E+03  0.14182321627E+03  0.00000000000E+00 0. -1.
         35    2    1    2    0    0  0.00000000000E+00  0.00000000000E+00 -0.59316811362E+01  0.27771475141E+03  0.27765139709E+03 0.  0.
         25    1    3    3    0    0  0.11295984640E+02  0.66876746199E+02  0.13544776825E+02  0.13850472711E+03  0.12000000000E+03 0.  0.
         25    1    3    3    0    0 -0.11295984640E+02 -0.66876746199E+02 -0.19476457961E+02  0.13921002430E+03  0.12000000000E+03 0.  0.
<mgrwt>
<rscale>  0 0.27765140E+03</rscale>
<asrwt>0</asrwt>
<pdfrwt beam="1">  1        2 0.21818956E-01 0.27765140E+03</pdfrwt>
<pdfrwt beam="2">  1       -2 0.20906390E-01 0.27765140E+03</pdfrwt>
<totfact> 0.48592344E+03</totfact>
</mgrwt>
</event>
<event>
 5    1  0.1139158E+001  0.2723533E+03  0.7818608E-02  0.1099940E+00
         -2   -1    0    0    0  501 -0.00000000000E+00  0.00000000000E+00  0.20354415404E+02  0.20354415404E+02  0.00000000000E+00 0.  1.
          2   -1    0    0  501    0  0.00000000000E+00 -0.00000000000E+00 -0.91105917438E+03  0.91105917438E+03  0.00000000000E+00 0.  1.
         35    2    1    2    0    0  0.00000000000E+00  0.00000000000E+00 -0.89070475898E+03  0.93141358979E+03  0.27235327715E+03 0.  0.
         25    1    3    3    0    0  0.45506029904E+02 -0.42545598427E+02 -0.50082923142E+03  0.51875894763E+03  0.12000000000E+03 0.  0.
         25    1    3    3    0    0 -0.45506029904E+02  0.42545598427E+02 -0.38987552756E+03  0.41265464216E+03  0.12000000000E+03 0.  0.
<mgrwt>
<rscale>  0 0.27235328E+03</rscale>
<asrwt>0</asrwt>
<pdfrwt beam="1">  1        2 0.14016291E+00 0.27235328E+03</pdfrwt>
<pdfrwt beam="2">  1       -2 0.31314493E-02 0.27235328E+03</pdfrwt>
<totfact> 0.11830407E+04</totfact>
</mgrwt>
</event>
<event>
 5    1  0.1139158E+001  0.2728330E+03  0.7818608E-02  0.1099669E+00
         -2   -1    0    0    0  501 -0.00000000000E+00  0.00000000000E+00  0.10630623672E+02  0.10630623672E+02  0.00000000000E+00 0.  1.
          2   -1    0    0  501    0  0.00000000000E+00 -0.00000000000E+00 -0.17505521588E+04  0.17505521588E+04  0.00000000000E+00 0.  1.
         35    2    1    2    0    0  0.00000000000E+00  0.00000000000E+00 -0.17399215351E+04  0.17611827825E+04  0.27283299814E+03 0.  0.
         25    1    3    3    0    0 -0.55824193739E+02  0.32790414695E+02 -0.89727864985E+03  0.90757948819E+03  0.12000000000E+03 0.  0.
         25    1    3    3    0    0  0.55824193739E+02 -0.32790414695E+02 -0.84264288529E+03  0.85360329430E+03  0.12000000000E+03 0.  0.
<mgrwt>
<rscale>  0 0.27283300E+03</rscale>
<asrwt>0</asrwt>
<pdfrwt beam="1">  1        2 0.26931556E+00 0.27283300E+03</pdfrwt>
<pdfrwt beam="2">  1       -2 0.16354815E-02 0.27283300E+03</pdfrwt>
<totfact> 0.10441424E+04</totfact>
</mgrwt>
</event>
<event>
 5    1  0.1139158E+001  0.2749415E+03  0.7818608E-02  0.1098484E+00
          2   -1    0    0  501    0  0.00000000000E+00  0.00000000000E+00  0.63915527260E+03  0.63915527260E+03  0.00000000000E+00 0. -1.
         -2   -1    0    0    0  501 -0.00000000000E+00 -0.00000000000E+00 -0.29567469794E+02  0.29567469794E+02  0.00000000000E+00 0. -1.
         35    2    1    2    0    0  0.00000000000E+00  0.00000000000E+00  0.60958780280E+03  0.66872274239E+03  0.27494147898E+03 0.  0.
         25    1    3    3    0    0  0.64845464317E+02  0.14353182538E+02  0.28207413876E+03  0.31365070994E+03  0.12000000000E+03 0.  0.
         25    1    3    3    0    0 -0.64845464317E+02 -0.14353182538E+02  0.32751366404E+03  0.35507203245E+03  0.12000000000E+03 0.  0.
<mgrwt>
<rscale>  0 0.27494148E+03</rscale>
<asrwt>0</asrwt>
<pdfrwt beam="1">  1        2 0.98331570E-01 0.27494148E+03</pdfrwt>
<pdfrwt beam="2">  1       -2 0.45488420E-02 0.27494148E+03</pdfrwt>
<totfact> 0.10541059E+04</totfact>
</mgrwt>
</event>
<event>
 5    1  0.1139158E+001  0.2750079E+03  0.7818608E-02  0.1098447E+00
          2   -1    0    0  501    0  0.00000000000E+00  0.00000000000E+00  0.18398651925E+04  0.18398651925E+04  0.00000000000E+00 0.  1.
         -2   -1    0    0    0  501 -0.00000000000E+00 -0.00000000000E+00 -0.10276477523E+02  0.10276477523E+02  0.00000000000E+00 0.  1.
         35    2    1    2    0    0  0.00000000000E+00  0.00000000000E+00  0.18295887150E+04  0.18501416700E+04  0.27500787841E+03 0.  0.
         25    1    3    3    0    0  0.19190975060E+02 -0.27901708884E+02  0.52479488225E+03  0.53940380729E+03  0.12000000000E+03 0.  0.
         25    1    3    3    0    0 -0.19190975060E+02  0.27901708884E+02  0.13047938327E+04  0.13107378627E+04  0.12000000000E+03 0.  0.
<mgrwt>
<rscale>  0 0.27500788E+03</rscale>
<asrwt>0</asrwt>
<pdfrwt beam="1">  1        2 0.28305592E+00 0.27500788E+03</pdfrwt>
<pdfrwt beam="2">  1       -2 0.15809980E-02 0.27500788E+03</pdfrwt>
<totfact> 0.98506420E+03</totfact>
</mgrwt>
</event>
<event>
 5    1  0.1139158E+001  0.2750625E+03  0.7818608E-02  0.1098417E+00
          1   -1    0    0  501    0  0.00000000000E+00  0.00000000000E+00  0.41999851709E+03  0.41999851709E+03  0.00000000000E+00 0. -1.
         -1   -1    0    0    0  501 -0.00000000000E+00 -0.00000000000E+00 -0.45035488168E+02  0.45035488168E+02  0.00000000000E+00 0. -1.
         35    2    1    2    0    0  0.00000000000E+00  0.00000000000E+00  0.37496302892E+03  0.46503400525E+03  0.27506245289E+03 0.  0.
         25    1    3    3    0    0 -0.69601862292E+01 -0.45175145327E+02  0.10421641239E+03  0.16537925674E+03  0.12000000000E+03 0.  0.
         25    1    3    3    0    0  0.69601862292E+01  0.45175145327E+02  0.27074661653E+03  0.29965474852E+03  0.12000000000E+03 0.  0.
<mgrwt>
<rscale>  0 0.27506245E+03</rscale>
<asrwt>0</asrwt>
<pdfrwt beam="1">  1        1 0.64615154E-01 0.27506245E+03</pdfrwt>
<pdfrwt beam="2">  1       -1 0.69285369E-02 0.27506245E+03</pdfrwt>
<totfact> 0.60692680E+03</totfact>
</mgrwt>
</event>
<event>
 5    1  0.1139158E+001  0.2750177E+03  0.7818608E-02  0.1098442E+00
          2   -1    0    0  501    0  0.00000000000E+00  0.00000000000E+00  0.17504321724E+04  0.17504321724E+04  0.00000000000E+00 0. -1.
         -2   -1    0    0    0  501 -0.00000000000E+00 -0.00000000000E+00 -0.10802291252E+02  0.10802291252E+02  0.00000000000E+00 0. -1.
         35    2    1    2    0    0  0.00000000000E+00  0.00000000000E+00  0.17396298811E+04  0.17612344636E+04  0.27501765865E+03 0.  0.
         25    1    3    3    0    0  0.56738332132E+02 -0.35732477241E+02  0.89257409880E+03  0.90309720967E+03  0.12000000000E+03 0.  0.
         25    1    3    3    0    0 -0.56738332132E+02  0.35732477241E+02  0.84705578232E+03  0.85813725395E+03  0.12000000000E+03 0.  0.
<mgrwt>
<rscale>  0 0.27501766E+03</rscale>
<asrwt>0</asrwt>
<pdfrwt beam="1">  1        2 0.26929703E+00 0.27501766E+03</pdfrwt>
<pdfrwt beam="2">  1       -2 0.16618923E-02 0.27501766E+03</pdfrwt>
<totfact> 0.10201963E+04</totfact>
</mgrwt>
</event>
<event>
 5    1  0.1139158E+001  0.2752273E+03  0.7818608E-02  0.1098325E+00
         -2   -1    0    0    0  501 -0.00000000000E+00  0.00000000000E+00  0.69213988605E+02  0.69213988605E+02  0.00000000000E+00 0. -1.
          2   -1    0    0  501    0  0.00000000000E+00 -0.00000000000E+00 -0.27360814648E+03  0.27360814648E+03  0.00000000000E+00 0. -1.
         35    2    1    2    0    0  0.00000000000E+00  0.00000000000E+00 -0.20439415787E+03  0.34282213508E+03  0.27522725979E+03 0.  0.
         25    1    3    3    0    0 -0.76023596898E+01 -0.58110294267E+02 -0.14356343268E+03  0.19607412215E+03  0.12000000000E+03 0.  0.
         25    1    3    3    0    0  0.76023596898E+01  0.58110294267E+02 -0.60830725186E+02  0.14674801293E+03  0.12000000000E+03 0.  0.
<mgrwt>
<rscale>  0 0.27522726E+03</rscale>
<asrwt>0</asrwt>
<pdfrwt beam="1">  1        2 0.42093561E-01 0.27522726E+03</pdfrwt>
<pdfrwt beam="2">  1       -2 0.10648306E-01 0.27522726E+03</pdfrwt>
<totfact> 0.71963942E+03</totfact>
</mgrwt>
</event>
<event>
 5    1  0.1139158E+001  0.2746002E+03  0.7818608E-02  0.1098675E+00
          3   -1    0    0  501    0  0.00000000000E+00  0.00000000000E+00  0.46438460557E+02  0.46438460557E+02  0.00000000000E+00 0.  1.
         -3   -1    0    0    0  501 -0.00000000000E+00 -0.00000000000E+00 -0.40594191262E+03  0.40594191262E+03  0.00000000000E+00 0.  1.
         35    2    1    2    0    0  0.00000000000E+00  0.00000000000E+00 -0.35950345206E+03  0.45238037318E+03  0.27460020027E+03 0.  0.
         25    1    3    3    0    0 -0.23187595269E+02 -0.47231577741E+02 -0.11217095302E+03  0.17248422888E+03  0.12000000000E+03 0.  0.
         25    1    3    3    0    0  0.23187595269E+02  0.47231577741E+02 -0.24733249904E+03  0.27989614430E+03  0.12000000000E+03 0.  0.
<mgrwt>
<rscale>  0 0.27460020E+03</rscale>
<asrwt>0</asrwt>
<pdfrwt beam="1">  1        3 0.71443782E-02 0.27460020E+03</pdfrwt>
<pdfrwt beam="2">  1       -3 0.62452605E-01 0.27460020E+03</pdfrwt>
<totfact> 0.82559442E+02</totfact>
</mgrwt>
</event>
<event>
 5    1  0.1139158E+001  0.2755185E+03  0.7818608E-02  0.1098162E+00
         -2   -1    0    0    0  501 -0.00000000000E+00  0.00000000000E+00  0.93894694707E+02  0.93894694707E+02  0.00000000000E+00 0.  1.
          2   -1    0    0  501    0  0.00000000000E+00 -0.00000000000E+00 -0.20211589612E+03  0.20211589612E+03  0.00000000000E+00 0.  1.
         35    2    1    2    0    0  0.00000000000E+00  0.00000000000E+00 -0.10822120141E+03  0.29601059083E+03  0.27551849565E+03 0.  0.
         25    1    3    3    0    0  0.50290979892E+02  0.43707670237E+02 -0.41486459218E+02  0.14338992083E+03  0.12000000000E+03 0.  0.
         25    1    3    3    0    0 -0.50290979892E+02 -0.43707670237E+02 -0.66734742197E+02  0.15262067000E+03  0.12000000000E+03 0.  0.
<mgrwt>
<rscale>  0 0.27551850E+03</rscale>
<asrwt>0</asrwt>
<pdfrwt beam="1">  1        2 0.31094753E-01 0.27551850E+03</pdfrwt>
<pdfrwt beam="2">  1       -2 0.14445338E-01 0.27551850E+03</pdfrwt>
<totfact> 0.60969615E+03</totfact>
</mgrwt>
</event>
<event>
 5    1  0.1139158E+001  0.2754142E+03  0.7818608E-02  0.1098220E+00
         -1   -1    0    0    0  501 -0.00000000000E+00  0.00000000000E+00  0.31862080352E+02  0.31862080352E+02  0.00000000000E+00 0. -1.
          1   -1    0    0  501    0  0.00000000000E+00 -0.00000000000E+00 -0.59516643645E+03  0.59516643645E+03  0.00000000000E+00 0. -1.
         35    2    1    2    0    0  0.00000000000E+00  0.00000000000E+00 -0.56330435610E+03  0.62702851680E+03  0.27541416682E+03 0.  0.
         25    1    3    3    0    0 -0.28034098787E+02  0.26156791129E+02 -0.40827199351E+03  0.42726585296E+03  0.12000000000E+03 0.  0.
         25    1    3    3    0    0  0.28034098787E+02 -0.26156791129E+02 -0.15503236258E+03  0.19976266384E+03  0.12000000000E+03 0.  0.
<mgrwt>
<rscale>  0 0.27541417E+03</rscale>
<asrwt>0</asrwt>
<pdfrwt beam="1">  1        1 0.91564066E-01 0.27541417E+03</pdfrwt>
<pdfrwt beam="2">  1       -1 0.49018586E-02 0.27541417E+03</pdfrwt>
<totfact> 0.64264791E+03</totfact>
</mgrwt>
</event>
<event>
 5    1  0.1139158E+001  0.2750566E+03  0.7818608E-02  0.1098420E+00
         -1   -1    0    0    0  501 -0.00000000000E+00  0.00000000000E+00  0.27700096753E+03  0.27700096753E+03  0.00000000000E+00 0. -1.
          1   -1    0    0  501    0  0.00000000000E+00 -0.00000000000E+00 -0.68281483851E+02  0.68281483851E+02  0.00000000000E+00 0. -1.
         35    2    1    2    0    0  0.00000000000E+00  0.00000000000E+00  0.20871948368E+03  0.34528245138E+03  0.27505662756E+03 0.  0.
         25    1    3    3    0    0  0.24084014105E+02 -0.49558934635E+02  0.56100967088E+02  0.14346932162E+03  0.12000000000E+03 0.  0.
         25    1    3    3    0    0 -0.24084014105E+02  0.49558934635E+02  0.15261851659E+03  0.20181312976E+03  0.12000000000E+03 0.  0.
<mgrwt>
<rscale>  0 0.27505663E+03</rscale>
<asrwt>0</asrwt>
<pdfrwt beam="1">  1        1 0.10504844E-01 0.27505663E+03</pdfrwt>
<pdfrwt beam="2">  1       -1 0.42615533E-01 0.27505663E+03</pdfrwt>
<totfact> 0.32922184E+03</totfact>
</mgrwt>
</event>
<event>
 5    1  0.1139158E+001  0.2754035E+03  0.7818608E-02  0.1098226E+00
          1   -1    0    0  501    0  0.00000000000E+00  0.00000000000E+00  0.83652340101E+03  0.83652340101E+03  0.00000000000E+00 0.  1.
         -1   -1    0    0    0  501 -0.00000000000E+00 -0.00000000000E+00 -0.22667360457E+02  0.22667360457E+02  0.00000000000E+00 0.  1.
         35    2    1    2    0    0  0.00000000000E+00  0.00000000000E+00  0.81385604056E+03  0.85919076147E+03  0.27540354000E+03 0.  0.
         25    1    3    3    0    0 -0.15072543866E+02  0.65761484741E+02  0.41680488489E+03  0.43895109810E+03  0.12000000000E+03 0.  0.
         25    1    3    3    0    0  0.15072543866E+02 -0.65761484741E+02  0.39705115567E+03  0.42023966337E+03  0.12000000000E+03 0.  0.
<mgrwt>
<rscale>  0 0.27540354E+03</rscale>
<asrwt>0</asrwt>
<pdfrwt beam="1">  1        1 0.12869588E+00 0.27540354E+03</pdfrwt>
<pdfrwt beam="2">  1       -1 0.34872869E-02 0.27540354E+03</pdfrwt>
<totfact> 0.64716377E+03</totfact>
</mgrwt>
</event>
<event>
 5    1  0.1139158E+001  0.2743896E+03  0.7818608E-02  0.1098793E+00
         -2   -1    0    0    0  501 -0.00000000000E+00  0.00000000000E+00  0.40709617947E+02  0.40709617947E+02  0.00000000000E+00 0.  1.
          2   -1    0    0  501    0  0.00000000000E+00 -0.00000000000E+00 -0.46235778198E+03  0.46235778198E+03  0.00000000000E+00 0.  1.
         35    2    1    2    0    0  0.00000000000E+00  0.00000000000E+00 -0.42164816403E+03  0.50306739993E+03  0.27438956729E+03 0.  0.
         25    1    3    3    0    0 -0.11164786615E+02 -0.27483006793E+01 -0.33091149894E+03  0.35218549906E+03  0.12000000000E+03 0.  0.
         25    1    3    3    0    0  0.11164786615E+02  0.27483006793E+01 -0.90736665086E+02  0.15088190086E+03  0.12000000000E+03 0.  0.
<mgrwt>
<rscale>  0 0.27438957E+03</rscale>
<asrwt>0</asrwt>
<pdfrwt beam="1">  1        2 0.71131969E-01 0.27438957E+03</pdfrwt>
<pdfrwt beam="2">  1       -2 0.62630179E-02 0.27438957E+03</pdfrwt>
<totfact> 0.93577414E+03</totfact>
</mgrwt>
</event>
<event>
 5    1  0.1139158E+001  0.2742607E+03  0.7818608E-02  0.1098866E+00
          2   -1    0    0  501    0  0.00000000000E+00  0.00000000000E+00  0.36687395046E+03  0.36687395046E+03  0.00000000000E+00 0. -1.
         -2   -1    0    0    0  501 -0.00000000000E+00 -0.00000000000E+00 -0.51256650123E+02  0.51256650123E+02  0.00000000000E+00 0. -1.
         35    2    1    2    0    0  0.00000000000E+00  0.00000000000E+00  0.31561730034E+03  0.41813060058E+03  0.27426067686E+03 0.  0.
         25    1    3    3    0    0 -0.35864596958E+02 -0.40303356515E+02  0.98878408680E+02  0.16458301724E+03  0.12000000000E+03 0.  0.
         25    1    3    3    0    0  0.35864596958E+02  0.40303356515E+02  0.21673889166E+03  0.25354758334E+03  0.12000000000E+03 0.  0.
<mgrwt>
<rscale>  0 0.27426068E+03</rscale>
<asrwt>0</asrwt>
<pdfrwt beam="1">  1        2 0.56442144E-01 0.27426068E+03</pdfrwt>
<pdfrwt beam="2">  1       -2 0.78856387E-02 0.27426068E+03</pdfrwt>
<totfact> 0.84288303E+03</totfact>
</mgrwt>
</event>
<event>
 5    1  0.1139158E+001  0.2766356E+03  0.7818608E-02  0.1097541E+00
          2   -1    0    0  501    0  0.00000000000E+00  0.00000000000E+00  0.79775378370E+03  0.79775378370E+03  0.00000000000E+00 0.  1.
         -2   -1    0    0    0  501 -0.00000000000E+00 -0.00000000000E+00 -0.23982101045E+02  0.23982101045E+02  0.00000000000E+00 0.  1.
         35    2    1    2    0    0  0.00000000000E+00  0.00000000000E+00  0.77377168266E+03  0.82173588475E+03  0.27663558592E+03 0.  0.
         25    1    3    3    0    0  0.25551391686E+02  0.56100667889E+02  0.47755328447E+03  0.49624318440E+03  0.12000000000E+03 0.  0.
         25    1    3    3    0    0 -0.25551391686E+02 -0.56100667889E+02  0.29621839819E+03  0.32549270035E+03  0.12000000000E+03 0.  0.
<mgrwt>
<rscale>  0 0.27663559E+03</rscale>
<asrwt>0</asrwt>
<pdfrwt beam="1">  1        2 0.12273133E+00 0.27663559E+03</pdfrwt>
<pdfrwt beam="2">  1       -2 0.36895546E-02 0.27663559E+03</pdfrwt>
<totfact> 0.11019682E+04</totfact>
</mgrwt>
</event>
<event>
 5    1  0.1139158E+001  0.2753278E+03  0.7818608E-02  0.1098268E+00
         -2   -1    0    0    0  501 -0.00000000000E+00  0.00000000000E+00  0.26289135245E+02  0.26289135245E+02  0.00000000000E+00 0. -1.
          2   -1    0    0  501    0  0.00000000000E+00 -0.00000000000E+00 -0.72088168369E+03  0.72088168369E+03  0.00000000000E+00 0. -1.
         35    2    1    2    0    0  0.00000000000E+00  0.00000000000E+00 -0.69459254845E+03  0.74717081894E+03  0.27532784878E+03 0.  0.
         25    1    3    3    0    0 -0.44256182734E+01  0.36347607386E+02 -0.19352886051E+03  0.23063857984E+03  0.12000000000E+03 0.  0.
         25    1    3    3    0    0  0.44256182734E+01 -0.36347607386E+02 -0.50106368793E+03  0.51653223910E+03  0.12000000000E+03 0.  0.
<mgrwt>
<rscale>  0 0.27532785E+03</rscale>
<asrwt>0</asrwt>
<pdfrwt beam="1">  1        2 0.11090488E+00 0.27532785E+03</pdfrwt>
<pdfrwt beam="2">  1       -2 0.40444822E-02 0.27532785E+03</pdfrwt>
<totfact> 0.10891409E+04</totfact>
</mgrwt>
</event>
<event>
 5    1  0.1139158E+001  0.2748626E+03  0.7818608E-02  0.1098528E+00
         -2   -1    0    0    0  501 -0.00000000000E+00  0.00000000000E+00  0.49748309209E+03  0.49748309209E+03  0.00000000000E+00 0.  1.
          2   -1    0    0  501    0  0.00000000000E+00 -0.00000000000E+00 -0.37965835902E+02  0.37965835902E+02  0.00000000000E+00 0.  1.
         35    2    1    2    0    0  0.00000000000E+00  0.00000000000E+00  0.45951725619E+03  0.53544892800E+03  0.27486259432E+03 0.  0.
         25    1    3    3    0    0 -0.63044687867E+02  0.48345425124E+01  0.18666482161E+03  0.23074176279E+03  0.12000000000E+03 0.  0.
         25    1    3    3    0    0  0.63044687867E+02 -0.48345425124E+01  0.27285243458E+03  0.30470716521E+03  0.12000000000E+03 0.  0.
<mgrwt>
<rscale>  0 0.27486259E+03</rscale>
<asrwt>0</asrwt>
<pdfrwt beam="1">  1        2 0.58408982E-02 0.27486259E+03</pdfrwt>
<pdfrwt beam="2">  1       -2 0.76535856E-01 0.27486259E+03</pdfrwt>
<totfact> 0.20061177E+03</totfact>
</mgrwt>
</event>
<event>
 5    1  0.1139158E+001  0.2750502E+03  0.7818608E-02  0.1098424E+00
          1   -1    0    0  501    0  0.00000000000E+00  0.00000000000E+00  0.12203145040E+03  0.12203145040E+03  0.00000000000E+00 0. -1.
         -1   -1    0    0    0  501 -0.00000000000E+00 -0.00000000000E+00 -0.15498593360E+03  0.15498593360E+03  0.00000000000E+00 0. -1.
         35    2    1    2    0    0  0.00000000000E+00  0.00000000000E+00 -0.32954483204E+02  0.27701738400E+03  0.27505023736E+03 0.  0.
         25    1    3    3    0    0  0.20259094317E+02 -0.24489885630E+02  0.43131971174E+02  0.13141747349E+03  0.12000000000E+03 0.  0.
         25    1    3    3    0    0 -0.20259094317E+02  0.24489885630E+02 -0.76086454378E+02  0.14559991051E+03  0.12000000000E+03 0.  0.
<mgrwt>
<rscale>  0 0.27505024E+03</rscale>
<asrwt>0</asrwt>
<pdfrwt beam="1">  1        1 0.18774069E-01 0.27505024E+03</pdfrwt>
<pdfrwt beam="2">  1       -1 0.23843990E-01 0.27505024E+03</pdfrwt>
<totfact> 0.41549461E+03</totfact>
</mgrwt>
</event>
<event>
 5    1  0.1139158E+001  0.2743477E+03  0.7818608E-02  0.1098817E+00
          4   -1    0    0  501    0  0.00000000000E+00  0.00000000000E+00  0.40527992054E+02  0.40527992054E+02  0.00000000000E+00 0. -1.
         -4   -1    0    0    0  501 -0.00000000000E+00 -0.00000000000E+00 -0.46428811499E+03  0.46428811499E+03  0.00000000000E+00 0. -1.
         35    2    1    2    0    0  0.00000000000E+00  0.00000000000E+00 -0.42376012293E+03  0.50481610704E+03  0.27434769935E+03 0.  0.
         25    1    3    3    0    0  0.41469327208E+01 -0.56585258011E+02 -0.27555719781E+03  0.30586084702E+03  0.12000000000E+03 0.  0.
         25    1    3    3    0    0 -0.41469327208E+01  0.56585258011E+02 -0.14820292512E+03  0.19895526002E+03  0.12000000000E+03 0.  0.
<mgrwt>
<rscale>  0 0.27434770E+03</rscale>
<asrwt>0</asrwt>
<pdfrwt beam="1">  1        4 0.62350757E-02 0.27434770E+03</pdfrwt>
<pdfrwt beam="2">  1       -4 0.71428941E-01 0.27434770E+03</pdfrwt>
<totfact> 0.56951518E+02</totfact>
</mgrwt>
</event>
<event>
 5    1  0.1139158E+001  0.2753739E+03  0.7818608E-02  0.1098243E+00
         -2   -1    0    0    0  501 -0.00000000000E+00  0.00000000000E+00  0.35520387633E+03  0.35520387633E+03  0.00000000000E+00 0. -1.
          2   -1    0    0  501    0  0.00000000000E+00 -0.00000000000E+00 -0.53371308961E+02  0.53371308961E+02  0.00000000000E+00 0. -1.
         35    2    1    2    0    0  0.00000000000E+00  0.00000000000E+00  0.30183256737E+03  0.40857518529E+03  0.27537389729E+03 0.  0.
         25    1    3    3    0    0 -0.14501420579E+02  0.49790903056E+02  0.86785122239E+02  0.15691106611E+03  0.12000000000E+03 0.  0.
         25    1    3    3    0    0  0.14501420579E+02 -0.49790903056E+02  0.21504744513E+03  0.25166411918E+03  0.12000000000E+03 0.  0.
<mgrwt>
<rscale>  0 0.27537390E+03</rscale>
<asrwt>0</asrwt>
<pdfrwt beam="1">  1        2 0.82109708E-02 0.27537390E+03</pdfrwt>
<pdfrwt beam="2">  1       -2 0.54646749E-01 0.27537390E+03</pdfrwt>
<totfact> 0.26299091E+03</totfact>
</mgrwt>
</event>
<event>
 5    1  0.1139158E+001  0.2744410E+03  0.7818608E-02  0.1098764E+00
          1   -1    0    0  501    0  0.00000000000E+00  0.00000000000E+00  0.27886653674E+03  0.27886653674E+03  0.00000000000E+00 0.  1.
         -1   -1    0    0    0  501 -0.00000000000E+00 -0.00000000000E+00 -0.67521438552E+02  0.67521438552E+02  0.00000000000E+00 0.  1.
         35    2    1    2    0    0  0.00000000000E+00  0.00000000000E+00  0.21134509819E+03  0.34638797529E+03  0.27444102991E+03 0.  0.
         25    1    3    3    0    0 -0.30184891520E+01 -0.16014319350E+02  0.24227645507E+02  0.12350120853E+03  0.12000000000E+03 0.  0.
         25    1    3    3    0    0  0.30184891520E+01  0.16014319350E+02  0.18711745268E+03  0.22288676676E+03  0.12000000000E+03 0.  0.
<mgrwt>
<rscale>  0 0.27444103E+03</rscale>
<asrwt>0</asrwt>
<pdfrwt beam="1">  1        1 0.42902544E-01 0.27444103E+03</pdfrwt>
<pdfrwt beam="2">  1       -1 0.10387914E-01 0.27444103E+03</pdfrwt>
<totfact> 0.54845754E+03</totfact>
</mgrwt>
</event>
<event>
 5    1  0.1139158E+001  0.2728953E+03  0.7818608E-02  0.1099634E+00
          2   -1    0    0  501    0  0.00000000000E+00  0.00000000000E+00  0.13491364333E+04  0.13491364333E+04  0.00000000000E+00 0.  1.
         -2   -1    0    0    0  501 -0.00000000000E+00 -0.00000000000E+00 -0.13799913200E+02  0.13799913200E+02  0.00000000000E+00 0.  1.
         35    2    1    2    0    0  0.00000000000E+00  0.00000000000E+00  0.13353365201E+04  0.13629363465E+04  0.27289533286E+03 0.  0.
         25    1    3    3    0    0 -0.11352700112E+02 -0.27466437468E+01  0.34859428875E+03  0.36885553541E+03  0.12000000000E+03 0.  0.
         25    1    3    3    0    0  0.11352700112E+02  0.27466437468E+01  0.98674223132E+03  0.99408081106E+03  0.12000000000E+03 0.  0.
<mgrwt>
<rscale>  0 0.27289533E+03</rscale>
<asrwt>0</asrwt>
<pdfrwt beam="1">  1        2 0.20755935E+00 0.27289533E+03</pdfrwt>
<pdfrwt beam="2">  1       -2 0.21230646E-02 0.27289533E+03</pdfrwt>
<totfact> 0.11656297E+04</totfact>
</mgrwt>
</event>
<event>
 5    1  0.1139158E+001  0.2751867E+03  0.7818608E-02  0.1098347E+00
          3   -1    0    0  501    0  0.00000000000E+00  0.00000000000E+00  0.29464037987E+03  0.29464037987E+03  0.00000000000E+00 0.  1.
         -3   -1    0    0    0  501 -0.00000000000E+00 -0.00000000000E+00 -0.64254362571E+02  0.64254362571E+02  0.00000000000E+00 0.  1.
         35    2    1    2    0    0  0.00000000000E+00  0.00000000000E+00  0.23038601730E+03  0.35889474244E+03  0.27518669878E+03 0.  0.
         25    1    3    3    0    0 -0.28276475783E+02 -0.58451676253E+02  0.92017640405E+02  0.16457036089E+03  0.12000000000E+03 0.  0.
         25    1    3    3    0    0  0.28276475783E+02  0.58451676253E+02  0.13836837690E+03  0.19432438155E+03  0.12000000000E+03 0.  0.
<mgrwt>
<rscale>  0 0.27518670E+03</rscale>
<asrwt>0</asrwt>
<pdfrwt beam="1">  1        3 0.45329288E-01 0.27518670E+03</pdfrwt>
<pdfrwt beam="2">  1       -3 0.98852867E-02 0.27518670E+03</pdfrwt>
<totfact> 0.92962075E+02</totfact>
</mgrwt>
</event>
<event>
 5    1  0.1139158E+001  0.2749759E+03  0.7818608E-02  0.1098465E+00
          1   -1    0    0  501    0  0.00000000000E+00  0.00000000000E+00  0.47660576566E+02  0.47660576566E+02  0.00000000000E+00 0. -1.
         -1   -1    0    0    0  501 -0.00000000000E+00 -0.00000000000E+00 -0.39661588914E+03  0.39661588914E+03  0.00000000000E+00 0. -1.
         35    2    1    2    0    0  0.00000000000E+00  0.00000000000E+00 -0.34895531257E+03  0.44427646571E+03  0.27497594041E+03 0.  0.
         25    1    3    3    0    0 -0.70474461499E+01 -0.63364877775E+02 -0.20829806111E+03  0.24870234517E+03  0.12000000000E+03 0.  0.
         25    1    3    3    0    0  0.70474461499E+01  0.63364877775E+02 -0.14065725147E+03  0.19557412053E+03  0.12000000000E+03 0.  0.
<mgrwt>
<rscale>  0 0.27497594E+03</rscale>
<asrwt>0</asrwt>
<pdfrwt beam="1">  1        1 0.73323963E-02 0.27497594E+03</pdfrwt>
<pdfrwt beam="2">  1       -1 0.61017829E-01 0.27497594E+03</pdfrwt>
<totfact> 0.27481218E+03</totfact>
</mgrwt>
</event>
<event>
 5    1  0.1139158E+001  0.2745361E+03  0.7818608E-02  0.1098711E+00
          2   -1    0    0  501    0  0.00000000000E+00  0.00000000000E+00  0.28686926356E+03  0.28686926356E+03  0.00000000000E+00 0.  1.
         -2   -1    0    0    0  501 -0.00000000000E+00 -0.00000000000E+00 -0.65683290747E+02  0.65683290747E+02  0.00000000000E+00 0.  1.
         35    2    1    2    0    0  0.00000000000E+00  0.00000000000E+00  0.22118597281E+03  0.35255255431E+03  0.27453609777E+03 0.  0.
         25    1    3    3    0    0 -0.44622289363E+02  0.32913546923E+02  0.15809128872E+03  0.20607597106E+03  0.12000000000E+03 0.  0.
         25    1    3    3    0    0  0.44622289363E+02 -0.32913546923E+02  0.63094684097E+02  0.14647658325E+03  0.12000000000E+03 0.  0.
<mgrwt>
<rscale>  0 0.27453610E+03</rscale>
<asrwt>0</asrwt>
<pdfrwt beam="1">  1        2 0.44133732E-01 0.27453610E+03</pdfrwt>
<pdfrwt beam="2">  1       -2 0.10105122E-01 0.27453610E+03</pdfrwt>
<totfact> 0.74338199E+03</totfact>
</mgrwt>
</event>
<event>
 5    1  0.1139158E+001  0.2751523E+03  0.7818608E-02  0.1098367E+00
         -2   -1    0    0    0  501 -0.00000000000E+00  0.00000000000E+00  0.15235599250E+02  0.15235599250E+02  0.00000000000E+00 0. -1.
          2   -1    0    0  501    0  0.00000000000E+00 -0.00000000000E+00 -0.12423006404E+04  0.12423006404E+04  0.00000000000E+00 0. -1.
         35    2    1    2    0    0  0.00000000000E+00  0.00000000000E+00 -0.12270650411E+04  0.12575362396E+04  0.27515228296E+03 0.  0.
         25    1    3    3    0    0  0.57778607952E+02 -0.28399542526E+02 -0.70289303256E+03  0.71596334876E+03  0.12000000000E+03 0.  0.
         25    1    3    3    0    0 -0.57778607952E+02  0.28399542526E+02 -0.52417200857E+03  0.54157289086E+03  0.12000000000E+03 0.  0.
<mgrwt>
<rscale>  0 0.27515228E+03</rscale>
<asrwt>0</asrwt>
<pdfrwt beam="1">  1        2 0.19112320E+00 0.27515228E+03</pdfrwt>
<pdfrwt beam="2">  1       -2 0.23439381E-02 0.27515228E+03</pdfrwt>
<totfact> 0.11547219E+04</totfact>
</mgrwt>
</event>
<event>
 5    1  0.1139158E+001  0.2760723E+03  0.7818608E-02  0.1097854E+00
          2   -1    0    0  501    0  0.00000000000E+00  0.00000000000E+00  0.13654501461E+04  0.13654501461E+04  0.00000000000E+00 0. -1.
         -2   -1    0    0    0  501 -0.00000000000E+00 -0.00000000000E+00 -0.13954355056E+02  0.13954355056E+02  0.00000000000E+00 0. -1.
         35    2    1    2    0    0  0.00000000000E+00  0.00000000000E+00  0.13514957910E+04  0.13794045011E+04  0.27607228147E+03 0.  0.
         25    1    3    3    0    0  0.50303386107E+02 -0.45524186680E+02  0.71146312582E+03  0.72469487484E+03  0.12000000000E+03 0.  0.
         25    1    3    3    0    0 -0.50303386107E+02  0.45524186680E+02  0.64003266519E+03  0.65470962627E+03  0.12000000000E+03 0.  0.
<mgrwt>
<rscale>  0 0.27607228E+03</rscale>
<asrwt>0</asrwt>
<pdfrwt beam="1">  1        2 0.21006915E+00 0.27607228E+03</pdfrwt>
<pdfrwt beam="2">  1       -2 0.21468249E-02 0.27607228E+03</pdfrwt>
<totfact> 0.11236533E+04</totfact>
</mgrwt>
</event>
<event>
 5    1  0.1139158E+001  0.2742127E+03  0.7818608E-02  0.1098893E+00
         -2   -1    0    0    0  501 -0.00000000000E+00  0.00000000000E+00  0.20180484228E+02  0.20180484228E+02  0.00000000000E+00 0. -1.
          2   -1    0    0  501    0  0.00000000000E+00 -0.00000000000E+00 -0.93150119895E+03  0.93150119895E+03  0.00000000000E+00 0. -1.
         35    2    1    2    0    0  0.00000000000E+00  0.00000000000E+00 -0.91132071472E+03  0.95168168318E+03  0.27421265655E+03 0.  0.
         25    1    3    3    0    0  0.44122003114E+02  0.39154360233E+02 -0.56083320683E+03  0.57655329413E+03  0.12000000000E+03 0.  0.
         25    1    3    3    0    0 -0.44122003114E+02 -0.39154360233E+02 -0.35048750790E+03  0.37512838905E+03  0.12000000000E+03 0.  0.
<mgrwt>
<rscale>  0 0.27421266E+03</rscale>
<asrwt>0</asrwt>
<pdfrwt beam="1">  1        2 0.14330785E+00 0.27421266E+03</pdfrwt>
<pdfrwt beam="2">  1       -2 0.31046906E-02 0.27421266E+03</pdfrwt>
<totfact> 0.11630853E+04</totfact>
</mgrwt>
</event>
<event>
 5    1  0.1139158E+001  0.2747027E+03  0.7818608E-02  0.1098618E+00
          4   -1    0    0  501    0  0.00000000000E+00  0.00000000000E+00  0.64092481829E+02  0.64092481829E+02  0.00000000000E+00 0. -1.
         -4   -1    0    0    0  501 -0.00000000000E+00 -0.00000000000E+00 -0.29434640034E+03  0.29434640034E+03  0.00000000000E+00 0. -1.
         35    2    1    2    0    0  0.00000000000E+00  0.00000000000E+00 -0.23025391851E+03  0.35843888217E+03  0.27470268521E+03 0.  0.
         25    1    3    3    0    0 -0.11773828951E+02 -0.76638583586E+01 -0.20037141092E+03  0.23397875991E+03  0.12000000000E+03 0.  0.
         25    1    3    3    0    0  0.11773828951E+02  0.76638583586E+01 -0.29882507589E+02  0.12446012226E+03  0.12000000000E+03 0.  0.
<mgrwt>
<rscale>  0 0.27470269E+03</rscale>
<asrwt>0</asrwt>
<pdfrwt beam="1">  1        4 0.98603818E-02 0.27470269E+03</pdfrwt>
<pdfrwt beam="2">  1       -4 0.45284062E-01 0.27470269E+03</pdfrwt>
<totfact> 0.69122346E+02</totfact>
</mgrwt>
</event>
<event>
 5    1  0.1139158E+001  0.2756937E+03  0.7818608E-02  0.1098064E+00
         -1   -1    0    0    0  501 -0.00000000000E+00  0.00000000000E+00  0.97359033603E+03  0.97359033603E+03  0.00000000000E+00 0.  1.
          1   -1    0    0  501    0  0.00000000000E+00 -0.00000000000E+00 -0.19517202321E+02  0.19517202321E+02  0.00000000000E+00 0.  1.
         35    2    1    2    0    0  0.00000000000E+00  0.00000000000E+00  0.95407313371E+03  0.99310753835E+03  0.27569373998E+03 0.  0.
         25    1    3    3    0    0 -0.31663804949E+02  0.55854715387E+02  0.39816424330E+03  0.42078154715E+03  0.12000000000E+03 0.  0.
         25    1    3    3    0    0  0.31663804949E+02 -0.55854715387E+02  0.55590889041E+03  0.57232599120E+03  0.12000000000E+03 0.  0.
<mgrwt>
<rscale>  0 0.27569374E+03</rscale>
<asrwt>0</asrwt>
<pdfrwt beam="1">  1        1 0.30026473E-02 0.27569374E+03</pdfrwt>
<pdfrwt beam="2">  1       -1 0.14978309E+00 0.27569374E+03</pdfrwt>
<totfact> 0.12916053E+03</totfact>
</mgrwt>
</event>
<event>
 5    1  0.1139158E+001  0.2749586E+03  0.7818608E-02  0.1098475E+00
         -2   -1    0    0    0  501 -0.00000000000E+00  0.00000000000E+00  0.30722159995E+03  0.30722159995E+03  0.00000000000E+00 0. -1.
          2   -1    0    0  501    0  0.00000000000E+00 -0.00000000000E+00 -0.61520937063E+02  0.61520937063E+02  0.00000000000E+00 0. -1.
         35    2    1    2    0    0  0.00000000000E+00  0.00000000000E+00  0.24570066289E+03  0.36874253702E+03  0.27495862027E+03 0.  0.
         25    1    3    3    0    0 -0.53710123064E+02 -0.15760389277E+02  0.17244130783E+03  0.21741474613E+03  0.12000000000E+03 0.  0.
         25    1    3    3    0    0  0.53710123064E+02  0.15760389277E+02  0.73259355059E+02  0.15132779088E+03  0.12000000000E+03 0.  0.
<mgrwt>
<rscale>  0 0.27495862E+03</rscale>
<asrwt>0</asrwt>
<pdfrwt beam="1">  1        2 0.94647597E-02 0.27495862E+03</pdfrwt>
<pdfrwt beam="2">  1       -2 0.47264861E-01 0.27495862E+03</pdfrwt>
<totfact> 0.29403234E+03</totfact>
</mgrwt>
</event>
<event>
 5    1  0.1139158E+001  0.2747120E+03  0.7818608E-02  0.1098613E+00
         -3   -1    0    0    0  501 -0.00000000000E+00  0.00000000000E+00  0.22902875286E+02  0.22902875286E+02  0.00000000000E+00 0. -1.
          3   -1    0    0  501    0  0.00000000000E+00 -0.00000000000E+00 -0.82376842452E+03  0.82376842452E+03  0.00000000000E+00 0. -1.
         35    2    1    2    0    0  0.00000000000E+00  0.00000000000E+00 -0.80086554924E+03  0.84667129981E+03  0.27471196182E+03 0.  0.
         25    1    3    3    0    0  0.26096382087E+01 -0.21210287344E+02 -0.20526490718E+03  0.23872655617E+03  0.12000000000E+03 0.  0.
         25    1    3    3    0    0 -0.26096382087E+01  0.21210287344E+02 -0.59560064206E+03  0.60794474364E+03  0.12000000000E+03 0.  0.
<mgrwt>
<rscale>  0 0.27471196E+03</rscale>
<asrwt>0</asrwt>
<pdfrwt beam="1">  1        3 0.12673362E+00 0.27471196E+03</pdfrwt>
<pdfrwt beam="2">  1       -3 0.35235187E-02 0.27471196E+03</pdfrwt>
<totfact> 0.52255590E+02</totfact>
</mgrwt>
</event>
<event>
 5    1  0.1139158E+001  0.2751711E+03  0.7818608E-02  0.1098356E+00
         -2   -1    0    0    0  501 -0.00000000000E+00  0.00000000000E+00  0.84738490033E+02  0.84738490033E+02  0.00000000000E+00 0. -1.
          2   -1    0    0  501    0  0.00000000000E+00 -0.00000000000E+00 -0.22339059523E+03  0.22339059523E+03  0.00000000000E+00 0. -1.
         35    2    1    2    0    0  0.00000000000E+00  0.00000000000E+00 -0.13865210520E+03  0.30812908526E+03  0.27517108662E+03 0.  0.
         25    1    3    3    0    0 -0.37485546636E+02  0.55892904777E+02 -0.68459608675E+02  0.15367465969E+03  0.12000000000E+03 0.  0.
         25    1    3    3    0    0  0.37485546636E+02 -0.55892904777E+02 -0.70192496521E+02  0.15445442557E+03  0.12000000000E+03 0.  0.
<mgrwt>
<rscale>  0 0.27517109E+03</rscale>
<asrwt>0</asrwt>
<pdfrwt beam="1">  1        2 0.34367783E-01 0.27517109E+03</pdfrwt>
<pdfrwt beam="2">  1       -2 0.13036691E-01 0.27517109E+03</pdfrwt>
<totfact> 0.64658810E+03</totfact>
</mgrwt>
</event>
<event>
 5    1  0.1139158E+001  0.2800690E+03  0.7818608E-02  0.1095651E+00
         -2   -1    0    0    0  501 -0.00000000000E+00  0.00000000000E+00  0.11919170500E+03  0.11919170500E+03  0.00000000000E+00 0. -1.
          2   -1    0    0  501    0  0.00000000000E+00 -0.00000000000E+00 -0.16452199755E+03  0.16452199755E+03  0.00000000000E+00 0. -1.
         35    2    1    2    0    0  0.00000000000E+00  0.00000000000E+00 -0.45330292549E+02  0.28371370255E+03  0.28006897292E+03 0.  0.
         25    1    3    3    0    0  0.58439432993E+02  0.43270321165E+00  0.20245315164E+02  0.13500084202E+03  0.12000000000E+03 0.  0.
         25    1    3    3    0    0 -0.58439432993E+02 -0.43270321165E+00 -0.65575607714E+02  0.14871286053E+03  0.12000000000E+03 0.  0.
<mgrwt>
<rscale>  0 0.28006897E+03</rscale>
<asrwt>0</asrwt>
<pdfrwt beam="1">  1        2 0.25311076E-01 0.28006897E+03</pdfrwt>
<pdfrwt beam="2">  1       -2 0.18337186E-01 0.28006897E+03</pdfrwt>
<totfact> 0.51441953E+03</totfact>
</mgrwt>
</event>
<event>
 5    1  0.1139158E+001  0.2725876E+03  0.7818608E-02  0.1099808E+00
          2   -1    0    0  501    0  0.00000000000E+00  0.00000000000E+00  0.52802996641E+02  0.52802996641E+02  0.00000000000E+00 0. -1.
         -2   -1    0    0    0  501 -0.00000000000E+00 -0.00000000000E+00 -0.35179810242E+03  0.35179810242E+03  0.00000000000E+00 0. -1.
         35    2    1    2    0    0  0.00000000000E+00  0.00000000000E+00 -0.29899510578E+03  0.40460109906E+03  0.27258755672E+03 0.  0.
         25    1    3    3    0    0 -0.39074069364E+02 -0.45433699695E+02 -0.11359748475E+03  0.17577085226E+03  0.12000000000E+03 0.  0.
         25    1    3    3    0    0  0.39074069364E+02  0.45433699695E+02 -0.18539762103E+03  0.22883024679E+03  0.12000000000E+03 0.  0.
<mgrwt>
<rscale>  0 0.27258756E+03</rscale>
<asrwt>0</asrwt>
<pdfrwt beam="1">  1        2 0.81235379E-02 0.27258756E+03</pdfrwt>
<pdfrwt beam="2">  1       -2 0.54122785E-01 0.27258756E+03</pdfrwt>
<totfact> 0.27176907E+03</totfact>
</mgrwt>
</event>
<event>
 5    1  0.1139158E+001  0.2750597E+03  0.7818608E-02  0.1098418E+00
          1   -1    0    0  501    0  0.00000000000E+00  0.00000000000E+00  0.55448344782E+03  0.55448344782E+03  0.00000000000E+00 0. -1.
         -1   -1    0    0    0  501 -0.00000000000E+00 -0.00000000000E+00 -0.34111865266E+02  0.34111865266E+02  0.00000000000E+00 0. -1.
         35    2    1    2    0    0  0.00000000000E+00  0.00000000000E+00  0.52037158255E+03  0.58859531308E+03  0.27505973653E+03 0.  0.
         25    1    3    3    0    0 -0.50027382395E+02  0.38302377205E+02  0.21024562817E+03  0.25014602786E+03  0.12000000000E+03 0.  0.
         25    1    3    3    0    0  0.50027382395E+02 -0.38302377205E+02  0.31012595438E+03  0.33844928522E+03  0.12000000000E+03 0.  0.
<mgrwt>
<rscale>  0 0.27505974E+03</rscale>
<asrwt>0</asrwt>
<pdfrwt beam="1">  1        1 0.85305139E-01 0.27505974E+03</pdfrwt>
<pdfrwt beam="2">  1       -1 0.52479797E-02 0.27505974E+03</pdfrwt>
<totfact> 0.63936791E+03</totfact>
</mgrwt>
</event>
<event>
 5    1  0.1139158E+001  0.2768583E+03  0.7818608E-02  0.1097417E+00
         -2   -1    0    0    0  501 -0.00000000000E+00  0.00000000000E+00  0.11521021817E+02  0.11521021817E+02  0.00000000000E+00 0.  1.
          2   -1    0    0  501    0  0.00000000000E+00 -0.00000000000E+00 -0.16632753930E+04  0.16632753930E+04  0.00000000000E+00 0.  1.
         35    2    1    2    0    0  0.00000000000E+00  0.00000000000E+00 -0.16517543711E+04  0.16747964148E+04  0.27685831821E+03 0.  0.
         25    1    3    3    0    0 -0.45925110746E+02 -0.44733175759E+01 -0.11363128285E+04  0.11435628407E+04  0.12000000000E+03 0.  0.
         25    1    3    3    0    0  0.45925110746E+02  0.44733175759E+01 -0.51544154261E+03  0.53123357406E+03  0.12000000000E+03 0.  0.
<mgrwt>
<rscale>  0 0.27685832E+03</rscale>
<asrwt>0</asrwt>
<pdfrwt beam="1">  1        2 0.25588829E+00 0.27685832E+03</pdfrwt>
<pdfrwt beam="2">  1       -2 0.17724665E-02 0.27685832E+03</pdfrwt>
<totfact> 0.10318095E+04</totfact>
</mgrwt>
</event>
<event>
 5    1  0.1139158E+001  0.2736737E+03  0.7818608E-02  0.1099195E+00
         -2   -1    0    0    0  501 -0.00000000000E+00  0.00000000000E+00  0.83816942903E+01  0.83816942903E+01  0.00000000000E+00 0. -1.
          2   -1    0    0  501    0  0.00000000000E+00 -0.00000000000E+00 -0.22339541112E+04  0.22339541112E+04  0.00000000000E+00 0. -1.
         35    2    1    2    0    0  0.00000000000E+00  0.00000000000E+00 -0.22255724169E+04  0.22423358055E+04  0.27367367735E+03 0.  0.
         25    1    3    3    0    0  0.47724563609E+02  0.16768368802E+02 -0.14570588407E+04  0.14628668010E+04  0.12000000000E+03 0.  0.
         25    1    3    3    0    0 -0.47724563609E+02 -0.16768368802E+02 -0.76851357617E+03  0.77946900446E+03  0.12000000000E+03 0.  0.
<mgrwt>
<rscale>  0 0.27367368E+03</rscale>
<asrwt>0</asrwt>
<pdfrwt beam="1">  1        2 0.34368567E+00 0.27367368E+03</pdfrwt>
<pdfrwt beam="2">  1       -2 0.12894898E-02 0.27367368E+03</pdfrwt>
<totfact> 0.82203383E+03</totfact>
</mgrwt>
</event>
<event>
 5    1  0.1139158E+001  0.2721810E+03  0.7818608E-02  0.1100038E+00
          1   -1    0    0  501    0  0.00000000000E+00  0.00000000000E+00  0.29384336172E+03  0.29384336172E+03  0.00000000000E+00 0.  1.
         -1   -1    0    0    0  501 -0.00000000000E+00 -0.00000000000E+00 -0.63028911796E+02  0.63028911796E+02  0.00000000000E+00 0.  1.
         35    2    1    2    0    0  0.00000000000E+00  0.00000000000E+00  0.23081444992E+03  0.35687227351E+03  0.27218102305E+03 0.  0.
         25    1    3    3    0    0  0.17800713283E+02 -0.38675811892E+02  0.17839663673E+03  0.21917582854E+03  0.12000000000E+03 0.  0.
         25    1    3    3    0    0 -0.17800713283E+02  0.38675811892E+02  0.52417813190E+02  0.13769644497E+03  0.12000000000E+03 0.  0.
<mgrwt>
<rscale>  0 0.27218102E+03</rscale>
<asrwt>0</asrwt>
<pdfrwt beam="1">  1        1 0.45206670E-01 0.27218102E+03</pdfrwt>
<pdfrwt beam="2">  1       -1 0.96967558E-02 0.27218102E+03</pdfrwt>
<totfact> 0.57109598E+03</totfact>
</mgrwt>
</event>
<event>
 5    1  0.1139158E+001  0.2751859E+03  0.7818608E-02  0.1098348E+00
         -2   -1    0    0    0  501 -0.00000000000E+00  0.00000000000E+00  0.19591777311E+03  0.19591777311E+03  0.00000000000E+00 0. -1.
          2   -1    0    0  501    0  0.00000000000E+00 -0.00000000000E+00 -0.96631469171E+02  0.96631469171E+02  0.00000000000E+00 0. -1.
         35    2    1    2    0    0  0.00000000000E+00  0.00000000000E+00  0.99286303944E+02  0.29254924229E+03  0.27518591717E+03 0.  0.
         25    1    3    3    0    0  0.35975112514E+02 -0.52392019728E+02  0.73240302283E+02  0.15428309801E+03  0.12000000000E+03 0.  0.
         25    1    3    3    0    0 -0.35975112514E+02  0.52392019728E+02  0.26046001661E+02  0.13826614428E+03  0.12000000000E+03 0.  0.
<mgrwt>
<rscale>  0 0.27518592E+03</rscale>
<asrwt>0</asrwt>
<pdfrwt beam="1">  1        2 0.14866380E-01 0.27518592E+03</pdfrwt>
<pdfrwt beam="2">  1       -2 0.30141196E-01 0.27518592E+03</pdfrwt>
<totfact> 0.39718100E+03</totfact>
</mgrwt>
</event>
<event>
 5    1  0.1139158E+001  0.2736543E+03  0.7818608E-02  0.1099206E+00
         -2   -1    0    0    0  501 -0.00000000000E+00  0.00000000000E+00  0.72087454703E+01  0.72087454703E+01  0.00000000000E+00 0. -1.
          2   -1    0    0  501    0  0.00000000000E+00 -0.00000000000E+00 -0.25970763631E+04  0.25970763631E+04  0.00000000000E+00 0. -1.
         35    2    1    2    0    0  0.00000000000E+00  0.00000000000E+00 -0.25898676176E+04  0.26042851086E+04  0.27365425243E+03 0.  0.
         25    1    3    3    0    0 -0.57165078894E+02  0.12373165641E+02 -0.10093185080E+04  0.10181084383E+04  0.12000000000E+03 0.  0.
         25    1    3    3    0    0  0.57165078894E+02 -0.12373165641E+02 -0.15805491096E+04  0.15861766703E+04  0.12000000000E+03 0.  0.
<mgrwt>
<rscale>  0 0.27365425E+03</rscale>
<asrwt>0</asrwt>
<pdfrwt beam="1">  1        2 0.39955035E+00 0.27365425E+03</pdfrwt>
<pdfrwt beam="2">  1       -2 0.11090374E-02 0.27365425E+03</pdfrwt>
<totfact> 0.65021439E+03</totfact>
</mgrwt>
</event>
<event>
 5    1  0.1139158E+001  0.2750103E+03  0.7818608E-02  0.1098446E+00
         -2   -1    0    0    0  501 -0.00000000000E+00  0.00000000000E+00  0.23380288896E+03  0.23380288896E+03  0.00000000000E+00 0.  1.
          2   -1    0    0  501    0  0.00000000000E+00 -0.00000000000E+00 -0.80870143204E+02  0.80870143204E+02  0.00000000000E+00 0.  1.
         35    2    1    2    0    0  0.00000000000E+00  0.00000000000E+00  0.15293274576E+03  0.31467303217E+03  0.27501034971E+03 0.  0.
         25    1    3    3    0    0  0.11977331424E+02 -0.21269679009E+02  0.14803122425E+03  0.19211740959E+03  0.12000000000E+03 0.  0.
         25    1    3    3    0    0 -0.11977331424E+02  0.21269679009E+02  0.49015215086E+01  0.12255562258E+03  0.12000000000E+03 0.  0.
<mgrwt>
<rscale>  0 0.27501035E+03</rscale>
<asrwt>0</asrwt>
<pdfrwt beam="1">  1        2 0.12441561E-01 0.27501035E+03</pdfrwt>
<pdfrwt beam="2">  1       -2 0.35969675E-01 0.27501035E+03</pdfrwt>
<totfact> 0.35488264E+03</totfact>
</mgrwt>
</event>
<event>
 5    1  0.1139158E+001  0.2693663E+03  0.7818608E-02  0.1101643E+00
         -2   -1    0    0    0  501 -0.00000000000E+00  0.00000000000E+00  0.12736372545E+02  0.12736372545E+02  0.00000000000E+00 0. -1.
          2   -1    0    0  501    0  0.00000000000E+00 -0.00000000000E+00 -0.14242321646E+04  0.14242321646E+04  0.00000000000E+00 0. -1.
         35    2    1    2    0    0  0.00000000000E+00  0.00000000000E+00 -0.14114957921E+04  0.14369685372E+04  0.26936630405E+03 0.  0.
         25    1    3    3    0    0  0.12643893605E+02 -0.57851608104E+02 -0.62434023623E+03  0.63851969991E+03  0.12000000000E+03 0.  0.
         25    1    3    3    0    0 -0.12643893605E+02  0.57851608104E+02 -0.78715555586E+03  0.79844883726E+03  0.12000000000E+03 0.  0.
<mgrwt>
<rscale>  0 0.26936630E+03</rscale>
<asrwt>0</asrwt>
<pdfrwt beam="1">  1        2 0.21911263E+00 0.26936630E+03</pdfrwt>
<pdfrwt beam="2">  1       -2 0.19594420E-02 0.26936630E+03</pdfrwt>
<totfact> 0.11934832E+04</totfact>
</mgrwt>
</event>
<event>
 5    1  0.1139158E+001  0.2744963E+03  0.7818608E-02  0.1098734E+00
          2   -1    0    0  501    0  0.00000000000E+00  0.00000000000E+00  0.27576210865E+04  0.27576210865E+04  0.00000000000E+00 0.  1.
         -2   -1    0    0    0  501 -0.00000000000E+00 -0.00000000000E+00 -0.68309058390E+01  0.68309058390E+01  0.00000000000E+00 0.  1.
         35    2    1    2    0    0  0.00000000000E+00  0.00000000000E+00  0.27507901806E+04  0.27644519923E+04  0.27449626578E+03 0.  0.
         25    1    3    3    0    0 -0.58406074735E+01 -0.62564112404E+02  0.11527669483E+04  0.11606980736E+04  0.12000000000E+03 0.  0.
         25    1    3    3    0    0  0.58406074735E+01  0.62564112404E+02  0.15980232323E+04  0.16037539187E+04  0.12000000000E+03 0.  0.
<mgrwt>
<rscale>  0 0.27449627E+03</rscale>
<asrwt>0</asrwt>
<pdfrwt beam="1">  1        2 0.42424851E+00 0.27449627E+03</pdfrwt>
<pdfrwt beam="2">  1       -2 0.10509108E-02 0.27449627E+03</pdfrwt>
<totfact> 0.57137000E+03</totfact>
</mgrwt>
</event>
<event>
 5    1  0.1139158E+001  0.2748703E+03  0.7818608E-02  0.1098524E+00
         -2   -1    0    0    0  501 -0.00000000000E+00  0.00000000000E+00  0.98191366533E+01  0.98191366533E+01  0.00000000000E+00 0. -1.
          2   -1    0    0  501    0  0.00000000000E+00 -0.00000000000E+00 -0.19236335894E+04  0.19236335894E+04  0.00000000000E+00 0. -1.
         35    2    1    2    0    0  0.00000000000E+00  0.00000000000E+00 -0.19138144528E+04  0.19334527261E+04  0.27487030458E+03 0.  0.
         25    1    3    3    0    0  0.37755208021E+02 -0.55297314883E+02 -0.97290458987E+03  0.98256123970E+03  0.12000000000E+03 0.  0.
         25    1    3    3    0    0 -0.37755208021E+02  0.55297314883E+02 -0.94090986291E+03  0.95089148639E+03  0.12000000000E+03 0.  0.
<mgrwt>
<rscale>  0 0.27487030E+03</rscale>
<asrwt>0</asrwt>
<pdfrwt beam="1">  1        2 0.29594355E+00 0.27487030E+03</pdfrwt>
<pdfrwt beam="2">  1       -2 0.15106368E-02 0.27487030E+03</pdfrwt>
<totfact> 0.95154615E+03</totfact>
</mgrwt>
</event>
<event>
 5    1  0.1139158E+001  0.2737404E+03  0.7818608E-02  0.1099158E+00
         -2   -1    0    0    0  501 -0.00000000000E+00  0.00000000000E+00  0.17273385792E+02  0.17273385792E+02  0.00000000000E+00 0.  1.
          2   -1    0    0  501    0  0.00000000000E+00 -0.00000000000E+00 -0.10845271794E+04  0.10845271794E+04  0.00000000000E+00 0.  1.
         35    2    1    2    0    0  0.00000000000E+00  0.00000000000E+00 -0.10672537936E+04  0.11018005652E+04  0.27374043452E+03 0.  0.
         25    1    3    3    0    0  0.16377545843E+02 -0.15382112485E+02 -0.78267620483E+03  0.79214069141E+03  0.12000000000E+03 0.  0.
         25    1    3    3    0    0 -0.16377545843E+02  0.15382112485E+02 -0.28457758879E+03  0.30965987379E+03  0.12000000000E+03 0.  0.
<mgrwt>
<rscale>  0 0.27374043E+03</rscale>
<asrwt>0</asrwt>
<pdfrwt beam="1">  1        2 0.16685038E+00 0.27374043E+03</pdfrwt>
<pdfrwt beam="2">  1       -2 0.26574433E-02 0.27374043E+03</pdfrwt>
<totfact> 0.11816283E+04</totfact>
</mgrwt>
</event>
<event>
 5    1  0.1139158E+001  0.2754469E+03  0.7818608E-02  0.1098202E+00
         -2   -1    0    0    0  501 -0.00000000000E+00  0.00000000000E+00  0.55428923720E+02  0.55428923720E+02  0.00000000000E+00 0.  1.
          2   -1    0    0  501    0  0.00000000000E+00 -0.00000000000E+00 -0.34219952400E+03  0.34219952400E+03  0.00000000000E+00 0.  1.
         35    2    1    2    0    0  0.00000000000E+00  0.00000000000E+00 -0.28677060028E+03  0.39762844773E+03  0.27544691912E+03 0.  0.
         25    1    3    3    0    0 -0.38261094071E+00 -0.24776017312E+02 -0.23415572008E+03  0.26427807073E+03  0.12000000000E+03 0.  0.
         25    1    3    3    0    0  0.38261094071E+00  0.24776017312E+02 -0.52614880207E+02  0.13335037699E+03  0.12000000000E+03 0.  0.
<mgrwt>
<rscale>  0 0.27544692E+03</rscale>
<asrwt>0</asrwt>
<pdfrwt beam="1">  1        2 0.52646082E-01 0.27544692E+03</pdfrwt>
<pdfrwt beam="2">  1       -2 0.85275266E-02 0.27544692E+03</pdfrwt>
<totfact> 0.80410076E+03</totfact>
</mgrwt>
</event>
<event>
 5    1  0.1139158E+001  0.2749836E+03  0.7818608E-02  0.1098461E+00
         -1   -1    0    0    0  501 -0.00000000000E+00  0.00000000000E+00  0.42260263154E+02  0.42260263154E+02  0.00000000000E+00 0. -1.
          1   -1    0    0  501    0  0.00000000000E+00 -0.00000000000E+00 -0.44732323411E+03  0.44732323411E+03  0.00000000000E+00 0. -1.
         35    2    1    2    0    0  0.00000000000E+00  0.00000000000E+00 -0.40506297095E+03  0.48958349726E+03  0.27498361834E+03 0.  0.
         25    1    3    3    0    0 -0.31618296493E+02 -0.13819425658E+02 -0.10004877197E+03  0.16000140616E+03  0.12000000000E+03 0.  0.
         25    1    3    3    0    0  0.31618296493E+02  0.13819425658E+02 -0.30501419898E+03  0.32958209110E+03  0.12000000000E+03 0.  0.
<mgrwt>
<rscale>  0 0.27498362E+03</rscale>
<asrwt>0</asrwt>
<pdfrwt beam="1">  1        1 0.68818958E-01 0.27498362E+03</pdfrwt>
<pdfrwt beam="2">  1       -1 0.65015791E-02 0.27498362E+03</pdfrwt>
<totfact> 0.61589520E+03</totfact>
</mgrwt>
</event>
<event>
 5    1  0.1139158E+001  0.2750834E+03  0.7818608E-02  0.1098405E+00
         -1   -1    0    0    0  501 -0.00000000000E+00  0.00000000000E+00  0.40715895741E+03  0.40715895741E+03  0.00000000000E+00 0. -1.
          1   -1    0    0  501    0  0.00000000000E+00 -0.00000000000E+00 -0.46462740255E+02  0.46462740255E+02  0.00000000000E+00 0. -1.
         35    2    1    2    0    0  0.00000000000E+00  0.00000000000E+00  0.36069621716E+03  0.45362169767E+03  0.27508341194E+03 0.  0.
         25    1    3    3    0    0  0.63269888140E+02  0.19170944224E+02  0.16034668552E+03  0.21090676472E+03  0.12000000000E+03 0.  0.
         25    1    3    3    0    0 -0.63269888140E+02 -0.19170944224E+02  0.20034953164E+03  0.24271493295E+03  0.12000000000E+03 0.  0.
<mgrwt>
<rscale>  0 0.27508341E+03</rscale>
<asrwt>0</asrwt>
<pdfrwt beam="1">  1        1 0.71481142E-02 0.27508341E+03</pdfrwt>
<pdfrwt beam="2">  1       -1 0.62639837E-01 0.27508341E+03</pdfrwt>
<totfact> 0.27043269E+03</totfact>
</mgrwt>
</event>
<event>
 5    1  0.1139158E+001  0.2772677E+03  0.7818608E-02  0.1097191E+00
          1   -1    0    0  501    0  0.00000000000E+00  0.00000000000E+00  0.22986405328E+03  0.22986405328E+03  0.00000000000E+00 0. -1.
         -1   -1    0    0    0  501 -0.00000000000E+00 -0.00000000000E+00 -0.83611774179E+02  0.83611774179E+02  0.00000000000E+00 0. -1.
         35    2    1    2    0    0  0.00000000000E+00  0.00000000000E+00  0.14625227911E+03  0.31347582746E+03  0.27726767799E+03 0.  0.
         25    1    3    3    0    0  0.14996806987E+02  0.55006534052E+02  0.28346840159E+02  0.13584611277E+03  0.12000000000E+03 0.  0.
         25    1    3    3    0    0 -0.14996806987E+02 -0.55006534052E+02  0.11790543895E+03  0.17762971469E+03  0.12000000000E+03 0.  0.
<mgrwt>
<rscale>  0 0.27726768E+03</rscale>
<asrwt>0</asrwt>
<pdfrwt beam="1">  1        1 0.35363700E-01 0.27726768E+03</pdfrwt>
<pdfrwt beam="2">  1       -1 0.12863350E-01 0.27726768E+03</pdfrwt>
<totfact> 0.50113114E+03</totfact>
</mgrwt>
</event>
<event>
 5    1  0.1139158E+001  0.2750707E+03  0.7818608E-02  0.1098412E+00
          1   -1    0    0  501    0  0.00000000000E+00  0.00000000000E+00  0.11986271844E+04  0.11986271844E+04  0.00000000000E+00 0.  1.
         -1   -1    0    0    0  501 -0.00000000000E+00 -0.00000000000E+00 -0.15781359271E+02  0.15781359271E+02  0.00000000000E+00 0.  1.
         35    2    1    2    0    0  0.00000000000E+00  0.00000000000E+00  0.11828458251E+04  0.12144085437E+04  0.27507065441E+03 0.  0.
         25    1    3    3    0    0  0.56205521949E+02  0.89650396704E+01  0.43368478627E+03  0.45356579068E+03  0.12000000000E+03 0.  0.
         25    1    3    3    0    0 -0.56205521949E+02 -0.89650396704E+01  0.74916103886E+03  0.76084275299E+03  0.12000000000E+03 0.  0.
<mgrwt>
<rscale>  0 0.27507065E+03</rscale>
<asrwt>0</asrwt>
<pdfrwt beam="1">  1        1 0.18440411E+00 0.27507065E+03</pdfrwt>
<pdfrwt beam="2">  1       -1 0.24279024E-02 0.27507065E+03</pdfrwt>
<totfact> 0.59161071E+03</totfact>
</mgrwt>
</event>
<event>
 5    1  0.1139158E+001  0.2738380E+03  0.7818608E-02  0.1099103E+00
         -2   -1    0    0    0  501 -0.00000000000E+00  0.00000000000E+00  0.30874729814E+03  0.30874729814E+03  0.00000000000E+00 0.  1.
          2   -1    0    0  501    0  0.00000000000E+00 -0.00000000000E+00 -0.60718935412E+02  0.60718935412E+02  0.00000000000E+00 0.  1.
         35    2    1    2    0    0  0.00000000000E+00  0.00000000000E+00  0.24802836273E+03  0.36946623356E+03  0.27383796125E+03 0.  0.
         25    1    3    3    0    0  0.54002898768E+02  0.91857392142E+01  0.17351614241E+03  0.21796454427E+03  0.12000000000E+03 0.  0.
         25    1    3    3    0    0 -0.54002898768E+02 -0.91857392142E+01  0.74512220318E+02  0.15150168929E+03  0.12000000000E+03 0.  0.
<mgrwt>
<rscale>  0 0.27383796E+03</rscale>
<asrwt>0</asrwt>
<pdfrwt beam="1">  1        2 0.93413748E-02 0.27383796E+03</pdfrwt>
<pdfrwt beam="2">  1       -2 0.47499584E-01 0.27383796E+03</pdfrwt>
<totfact> 0.29595239E+03</totfact>
</mgrwt>
</event>
<event>
 5    1  0.1139158E+001  0.2738264E+03  0.7818608E-02  0.1099109E+00
          1   -1    0    0  501    0  0.00000000000E+00  0.00000000000E+00  0.21322376110E+02  0.21322376110E+02  0.00000000000E+00 0.  1.
         -1   -1    0    0    0  501 -0.00000000000E+00 -0.00000000000E+00 -0.87913364379E+03  0.87913364379E+03  0.00000000000E+00 0.  1.
         35    2    1    2    0    0  0.00000000000E+00  0.00000000000E+00 -0.85781126768E+03  0.90045601990E+03  0.27382635523E+03 0.  0.
         25    1    3    3    0    0 -0.24201693940E+02  0.55238362466E+02 -0.34139290860E+03  0.36685980526E+03  0.12000000000E+03 0.  0.
         25    1    3    3    0    0  0.24201693940E+02 -0.55238362466E+02 -0.51641835909E+03  0.53359621464E+03  0.12000000000E+03 0.  0.
<mgrwt>
<rscale>  0 0.27382636E+03</rscale>
<asrwt>0</asrwt>
<pdfrwt beam="1">  1        1 0.32803656E-02 0.27382636E+03</pdfrwt>
<pdfrwt beam="2">  1       -1 0.13525133E+00 0.27382636E+03</pdfrwt>
<totfact> 0.14816547E+03</totfact>
</mgrwt>
</event>
<event>
 5    1  0.1139158E+001  0.2752530E+03  0.7818608E-02  0.1098310E+00
         -2   -1    0    0    0  501 -0.00000000000E+00  0.00000000000E+00  0.23993898780E+03  0.23993898780E+03  0.00000000000E+00 0.  1.
          2   -1    0    0  501    0  0.00000000000E+00 -0.00000000000E+00 -0.78941120790E+02  0.78941120790E+02  0.00000000000E+00 0.  1.
         35    2    1    2    0    0  0.00000000000E+00  0.00000000000E+00  0.16099786701E+03  0.31888010860E+03  0.27525299358E+03 0.  0.
         25    1    3    3    0    0 -0.22750941953E+02  0.28209543978E+01  0.15391052247E+03  0.19650448359E+03  0.12000000000E+03 0.  0.
         25    1    3    3    0    0  0.22750941953E+02 -0.28209543978E+01  0.70873445469E+01  0.12237562501E+03  0.12000000000E+03 0.  0.
<mgrwt>
<rscale>  0 0.27525299E+03</rscale>
<asrwt>0</asrwt>
<pdfrwt beam="1">  1        2 0.12144788E-01 0.27525299E+03</pdfrwt>
<pdfrwt beam="2">  1       -2 0.36913690E-01 0.27525299E+03</pdfrwt>
<totfact> 0.34809702E+03</totfact>
</mgrwt>
</event>
<event>
 5    1  0.1139158E+001  0.2729364E+03  0.7818608E-02  0.1099611E+00
         -1   -1    0    0    0  501 -0.00000000000E+00  0.00000000000E+00  0.12872333198E+03  0.12872333198E+03  0.00000000000E+00 0. -1.
          1   -1    0    0  501    0  0.00000000000E+00 -0.00000000000E+00 -0.14467903788E+03  0.14467903788E+03  0.00000000000E+00 0. -1.
         35    2    1    2    0    0  0.00000000000E+00  0.00000000000E+00 -0.15955705905E+02  0.27340236986E+03  0.27293638690E+03 0.  0.
         25    1    3    3    0    0 -0.64071834574E+02 -0.96759846521E+01 -0.12960595025E+02  0.13699197673E+03  0.12000000000E+03 0.  0.
         25    1    3    3    0    0  0.64071834574E+02  0.96759846521E+01 -0.29951108801E+01  0.13641039313E+03  0.12000000000E+03 0.  0.
<mgrwt>
<rscale>  0 0.27293639E+03</rscale>
<asrwt>0</asrwt>
<pdfrwt beam="1">  1        1 0.22258314E-01 0.27293639E+03</pdfrwt>
<pdfrwt beam="2">  1       -1 0.19803590E-01 0.27293639E+03</pdfrwt>
<totfact> 0.45235281E+03</totfact>
</mgrwt>
</event>
<event>
 5    1  0.1139158E+001  0.2743771E+03  0.7818608E-02  0.1098800E+00
         -1   -1    0    0    0  501 -0.00000000000E+00  0.00000000000E+00  0.15048309060E+02  0.15048309060E+02  0.00000000000E+00 0.  1.
          1   -1    0    0  501    0  0.00000000000E+00 -0.00000000000E+00 -0.12506853006E+04  0.12506853006E+04  0.00000000000E+00 0.  1.
         35    2    1    2    0    0  0.00000000000E+00  0.00000000000E+00 -0.12356369915E+04  0.12657336096E+04  0.27437710502E+03 0.  0.
         25    1    3    3    0    0  0.52210782036E+01 -0.32754630539E+02 -0.88364665812E+03  0.89237410422E+03  0.12000000000E+03 0.  0.
         25    1    3    3    0    0 -0.52210782036E+01  0.32754630539E+02 -0.35199033340E+03  0.37335950542E+03  0.12000000000E+03 0.  0.
<mgrwt>
<rscale>  0 0.27437711E+03</rscale>
<asrwt>0</asrwt>
<pdfrwt beam="1">  1        1 0.19241324E+00 0.27437711E+03</pdfrwt>
<pdfrwt beam="2">  1       -1 0.23151231E-02 0.27437711E+03</pdfrwt>
<totfact> 0.58361861E+03</totfact>
</mgrwt>
</event>
<event>
 5    1  0.1139158E+001  0.2742206E+03  0.7818608E-02  0.1098888E+00
          2   -1    0    0  501    0  0.00000000000E+00  0.00000000000E+00  0.14295943166E+04  0.14295943166E+04  0.00000000000E+00 0.  1.
         -2   -1    0    0    0  501 -0.00000000000E+00 -0.00000000000E+00 -0.13150052685E+02  0.13150052685E+02  0.00000000000E+00 0.  1.
         35    2    1    2    0    0  0.00000000000E+00  0.00000000000E+00  0.14164442639E+04  0.14427443692E+04  0.27422064533E+03 0.  0.
         25    1    3    3    0    0 -0.18437182765E+02  0.59606859251E+02  0.58983419756E+03  0.60514237001E+03  0.12000000000E+03 0.  0.
         25    1    3    3    0    0  0.18437182765E+02 -0.59606859251E+02  0.82661006632E+03  0.83760199923E+03  0.12000000000E+03 0.  0.
<mgrwt>
<rscale>  0 0.27422065E+03</rscale>
<asrwt>0</asrwt>
<pdfrwt beam="1">  1        2 0.21993746E+00 0.27422065E+03</pdfrwt>
<pdfrwt beam="2">  1       -2 0.20230862E-02 0.27422065E+03</pdfrwt>
<totfact> 0.11315833E+04</totfact>
</mgrwt>
</event>
<event>
 5    1  0.1139158E+001  0.2753386E+03  0.7818608E-02  0.1098262E+00
          1   -1    0    0  501    0  0.00000000000E+00  0.00000000000E+00  0.42629799885E+03  0.42629799885E+03  0.00000000000E+00 0. -1.
         -1   -1    0    0    0  501 -0.00000000000E+00 -0.00000000000E+00 -0.44459114546E+02  0.44459114546E+02  0.00000000000E+00 0. -1.
         35    2    1    2    0    0  0.00000000000E+00  0.00000000000E+00  0.38183888430E+03  0.47075711340E+03  0.27533856658E+03 0.  0.
         25    1    3    3    0    0  0.25208171311E+02  0.48578265534E+01  0.84231432037E+02  0.14884214633E+03  0.12000000000E+03 0.  0.
         25    1    3    3    0    0 -0.25208171311E+02 -0.48578265534E+01  0.29760745227E+03  0.32191496707E+03  0.12000000000E+03 0.  0.
<mgrwt>
<rscale>  0 0.27533857E+03</rscale>
<asrwt>0</asrwt>
<pdfrwt beam="1">  1        1 0.65584305E-01 0.27533857E+03</pdfrwt>
<pdfrwt beam="2">  1       -1 0.68398641E-02 0.27533857E+03</pdfrwt>
<totfact> 0.60713282E+03</totfact>
</mgrwt>
</event>
<event>
 5    1  0.1139158E+001  0.2742465E+03  0.7818608E-02  0.1098874E+00
          1   -1    0    0  501    0  0.00000000000E+00  0.00000000000E+00  0.10099177845E+03  0.10099177845E+03  0.00000000000E+00 0.  1.
         -1   -1    0    0    0  501 -0.00000000000E+00 -0.00000000000E+00 -0.18618133593E+03  0.18618133593E+03  0.00000000000E+00 0.  1.
         35    2    1    2    0    0  0.00000000000E+00  0.00000000000E+00 -0.85189557478E+02  0.28717311437E+03  0.27424648934E+03 0.  0.
         25    1    3    3    0    0  0.52611279189E+02  0.81552743017E+01 -0.11259955407E+01  0.13128489274E+03  0.12000000000E+03 0.  0.
         25    1    3    3    0    0 -0.52611279189E+02 -0.81552743017E+01 -0.84063561938E+02  0.15588822163E+03  0.12000000000E+03 0.  0.
<mgrwt>
<rscale>  0 0.27424649E+03</rscale>
<asrwt>0</asrwt>
<pdfrwt beam="1">  1        1 0.15537197E-01 0.27424649E+03</pdfrwt>
<pdfrwt beam="2">  1       -1 0.28643282E-01 0.27424649E+03</pdfrwt>
<totfact> 0.39112765E+03</totfact>
</mgrwt>
</event>
<event>
 5    1  0.1139158E+001  0.2768719E+03  0.7818608E-02  0.1097410E+00
         -2   -1    0    0    0  501 -0.00000000000E+00  0.00000000000E+00  0.12619363122E+03  0.12619363122E+03  0.00000000000E+00 0. -1.
          2   -1    0    0  501    0  0.00000000000E+00 -0.00000000000E+00 -0.15186597345E+03  0.15186597345E+03  0.00000000000E+00 0. -1.
         35    2    1    2    0    0  0.00000000000E+00  0.00000000000E+00 -0.25672342228E+02  0.27805960467E+03  0.27687194621E+03 0.  0.
         25    1    3    3    0    0  0.60878694503E+02 -0.73283367064E+01 -0.44667535218E+02  0.14196868903E+03  0.12000000000E+03 0.  0.
         25    1    3    3    0    0 -0.60878694503E+02  0.73283367064E+01  0.18995192990E+02  0.13609091564E+03  0.12000000000E+03 0.  0.
<mgrwt>
<rscale>  0 0.27687195E+03</rscale>
<asrwt>0</asrwt>
<pdfrwt beam="1">  1        2 0.23363996E-01 0.27687195E+03</pdfrwt>
<pdfrwt beam="2">  1       -2 0.19414405E-01 0.27687195E+03</pdfrwt>
<totfact> 0.51053185E+03</totfact>
</mgrwt>
</event>
<event>
 5    1  0.1139158E+001  0.2752702E+03  0.7818608E-02  0.1098301E+00
          1   -1    0    0  501    0  0.00000000000E+00  0.00000000000E+00  0.34103217845E+03  0.34103217845E+03  0.00000000000E+00 0. -1.
         -1   -1    0    0    0  501 -0.00000000000E+00 -0.00000000000E+00 -0.55547318758E+02  0.55547318758E+02  0.00000000000E+00 0. -1.
         35    2    1    2    0    0  0.00000000000E+00  0.00000000000E+00  0.28548485969E+03  0.39657949721E+03  0.27527021723E+03 0.  0.
         25    1    3    3    0    0 -0.58696034637E+02 -0.64965956900E+01  0.18955920858E+03  0.23199164596E+03  0.12000000000E+03 0.  0.
         25    1    3    3    0    0  0.58696034637E+02  0.64965956900E+01  0.95925651115E+02  0.16458785125E+03  0.12000000000E+03 0.  0.
<mgrwt>
<rscale>  0 0.27527022E+03</rscale>
<asrwt>0</asrwt>
<pdfrwt beam="1">  1        1 0.52466488E-01 0.27527022E+03</pdfrwt>
<pdfrwt beam="2">  1       -1 0.85457415E-02 0.27527022E+03</pdfrwt>
<totfact> 0.57504893E+03</totfact>
</mgrwt>
</event>
<event>
 5    1  0.1139158E+001  0.2743077E+03  0.7818608E-02  0.1098839E+00
          3   -1    0    0  501    0  0.00000000000E+00  0.00000000000E+00  0.27507332038E+03  0.27507332038E+03  0.00000000000E+00 0.  1.
         -3   -1    0    0    0  501 -0.00000000000E+00 -0.00000000000E+00 -0.68386034373E+02  0.68386034373E+02  0.00000000000E+00 0.  1.
         35    2    1    2    0    0  0.00000000000E+00  0.00000000000E+00  0.20668728600E+03  0.34345935475E+03  0.27430766334E+03 0.  0.
         25    1    3    3    0    0  0.16325523823E+02 -0.46191826270E+02  0.15949235171E+03  0.20551889888E+03  0.12000000000E+03 0.  0.
         25    1    3    3    0    0 -0.16325523823E+02  0.46191826270E+02  0.47194934288E+02  0.13794045587E+03  0.12000000000E+03 0.  0.
<mgrwt>
<rscale>  0 0.27430766E+03</rscale>
<asrwt>0</asrwt>
<pdfrwt beam="1">  1        3 0.42318972E-01 0.27430766E+03</pdfrwt>
<pdfrwt beam="2">  1       -3 0.10520928E-01 0.27430766E+03</pdfrwt>
<totfact> 0.95895598E+02</totfact>
</mgrwt>
</event>
<event>
 5    1  0.1139158E+001  0.2751816E+03  0.7818608E-02  0.1098350E+00
         -1   -1    0    0    0  501 -0.00000000000E+00  0.00000000000E+00  0.11248060908E+03  0.11248060908E+03  0.00000000000E+00 0.  1.
          1   -1    0    0  501    0  0.00000000000E+00 -0.00000000000E+00 -0.16830653690E+03  0.16830653690E+03  0.00000000000E+00 0.  1.
         35    2    1    2    0    0  0.00000000000E+00  0.00000000000E+00 -0.55825927818E+02  0.28078714597E+03  0.27518155303E+03 0.  0.
         25    1    3    3    0    0  0.15369688699E+02 -0.49188603740E+02  0.16275980527E+02  0.13160795421E+03  0.12000000000E+03 0.  0.
         25    1    3    3    0    0 -0.15369688699E+02  0.49188603740E+02 -0.72101908345E+02  0.14917919176E+03  0.12000000000E+03 0.  0.
<mgrwt>
<rscale>  0 0.27518155E+03</rscale>
<asrwt>0</asrwt>
<pdfrwt beam="1">  1        1 0.25893313E-01 0.27518155E+03</pdfrwt>
<pdfrwt beam="2">  1       -1 0.17304709E-01 0.27518155E+03</pdfrwt>
<totfact> 0.46382689E+03</totfact>
</mgrwt>
</event>
<event>
 4    1  0.1139158E+001  0.2915405E+03  0.7818608E-02  0.1089548E+00
          2   -1    0    0  501    0  0.00000000000E+00  0.00000000000E+00  0.23752215888E+04  0.23752215888E+04  0.00000000000E+00 0. -1.
         -2   -1    0    0    0  501 -0.00000000000E+00 -0.00000000000E+00 -0.89460994449E+01  0.89460994449E+01  0.00000000000E+00 0. -1.
         25    1    1    2    0    0  0.21824637513E+02 -0.72125376007E+02  0.90334326395E+03  0.91438910601E+03  0.12000000000E+03 0.  0.
         25    1    1    2    0    0 -0.21824637513E+02  0.72125376007E+02  0.14629322254E+04  0.14697785823E+04  0.12000000000E+03 0.  0.
<mgrwt>
<rscale>  0 0.29154052E+03</rscale>
<asrwt>0</asrwt>
<pdfrwt beam="1">  1        2 0.36541820E+00 0.29154052E+03</pdfrwt>
<pdfrwt beam="2">  1       -2 0.13763249E-02 0.29154052E+03</pdfrwt>
<totfact> 0.62754996E+03</totfact>
</mgrwt>
</event>
<event>
 5    1  0.1139158E+001  0.2745490E+03  0.7818608E-02  0.1098704E+00
         -4   -1    0    0    0  501 -0.00000000000E+00  0.00000000000E+00  0.57286874639E+03  0.57286874639E+03  0.00000000000E+00 0.  1.
          4   -1    0    0  501    0  0.00000000000E+00 -0.00000000000E+00 -0.32894588272E+02  0.32894588272E+02  0.00000000000E+00 0.  1.
         35    2    1    2    0    0  0.00000000000E+00  0.00000000000E+00  0.53997415812E+03  0.60576333466E+03  0.27454895044E+03 0.  0.
         25    1    3    3    0    0 -0.17493377415E+02 -0.31203310102E+02  0.39410764731E+03  0.41352207013E+03  0.12000000000E+03 0.  0.
         25    1    3    3    0    0  0.17493377415E+02  0.31203310102E+02  0.14586651081E+03  0.19224126454E+03  0.12000000000E+03 0.  0.
<mgrwt>
<rscale>  0 0.27454895E+03</rscale>
<asrwt>0</asrwt>
<pdfrwt beam="1">  1        4 0.50607063E-02 0.27454895E+03</pdfrwt>
<pdfrwt beam="2">  1       -4 0.88133646E-01 0.27454895E+03</pdfrwt>
<totfact> 0.50092680E+02</totfact>
</mgrwt>
</event>
<event>
 5    1  0.1139158E+001  0.2757836E+03  0.7818608E-02  0.1098014E+00
         -1   -1    0    0    0  501 -0.00000000000E+00  0.00000000000E+00  0.14569870576E+02  0.14569870576E+02  0.00000000000E+00 0.  1.
          1   -1    0    0  501    0  0.00000000000E+00 -0.00000000000E+00 -0.13050320285E+04  0.13050320285E+04  0.00000000000E+00 0.  1.
         35    2    1    2    0    0  0.00000000000E+00  0.00000000000E+00 -0.12904621579E+04  0.13196018991E+04  0.27578359453E+03 0.  0.
         25    1    3    3    0    0 -0.32539533107E+02 -0.49237558386E+02 -0.80614876093E+03  0.81716521164E+03  0.12000000000E+03 0.  0.
         25    1    3    3    0    0  0.32539533107E+02  0.49237558386E+02 -0.48431339698E+03  0.50243668742E+03  0.12000000000E+03 0.  0.
<mgrwt>
<rscale>  0 0.27578359E+03</rscale>
<asrwt>0</asrwt>
<pdfrwt beam="1">  1        1 0.20077412E+00 0.27578359E+03</pdfrwt>
<pdfrwt beam="2">  1       -1 0.22415190E-02 0.27578359E+03</pdfrwt>
<totfact> 0.56156521E+03</totfact>
</mgrwt>
</event>
<event>
 5    1  0.1139158E+001  0.2755920E+03  0.7818608E-02  0.1098121E+00
         -1   -1    0    0    0  501 -0.00000000000E+00  0.00000000000E+00  0.35538076833E+03  0.35538076833E+03  0.00000000000E+00 0.  1.
          1   -1    0    0  501    0  0.00000000000E+00 -0.00000000000E+00 -0.53429290076E+02  0.53429290076E+02  0.00000000000E+00 0.  1.
         35    2    1    2    0    0  0.00000000000E+00  0.00000000000E+00  0.30195147825E+03  0.40881005840E+03  0.27559203296E+03 0.  0.
         25    1    3    3    0    0 -0.48278757075E+02 -0.43444061798E+02  0.17949066740E+03  0.22546645997E+03  0.12000000000E+03 0.  0.
         25    1    3    3    0    0  0.48278757075E+02  0.43444061798E+02  0.12246081086E+03  0.18334359843E+03  0.12000000000E+03 0.  0.
<mgrwt>
<rscale>  0 0.27559203E+03</rscale>
<asrwt>0</asrwt>
<pdfrwt beam="1">  1        1 0.82198910E-02 0.27559203E+03</pdfrwt>
<pdfrwt beam="2">  1       -1 0.54673963E-01 0.27559203E+03</pdfrwt>
<totfact> 0.29002302E+03</totfact>
</mgrwt>
</event>
<event>
 5    1  0.1139158E+001  0.2768226E+03  0.7818608E-02  0.1097437E+00
          2   -1    0    0  501    0  0.00000000000E+00  0.00000000000E+00  0.94462324123E+02  0.94462324123E+02  0.00000000000E+00 0.  1.
         -2   -1    0    0    0  501 -0.00000000000E+00 -0.00000000000E+00 -0.20280772196E+03  0.20280772196E+03  0.00000000000E+00 0.  1.
         35    2    1    2    0    0  0.00000000000E+00  0.00000000000E+00 -0.10834539784E+03  0.29727004609E+03  0.27682260577E+03 0.  0.
         25    1    3    3    0    0 -0.85128104118E+01 -0.66028380809E+02 -0.73546176485E+02  0.15569603427E+03  0.12000000000E+03 0.  0.
         25    1    3    3    0    0  0.85128104118E+01  0.66028380809E+02 -0.34799221355E+02  0.14157401181E+03  0.12000000000E+03 0.  0.
<mgrwt>
<rscale>  0 0.27682261E+03</rscale>
<asrwt>0</asrwt>
<pdfrwt beam="1">  1        2 0.14532665E-01 0.27682261E+03</pdfrwt>
<pdfrwt beam="2">  1       -2 0.31201188E-01 0.27682261E+03</pdfrwt>
<totfact> 0.38320049E+03</totfact>
</mgrwt>
</event>
<event>
 5    1  0.1139158E+001  0.2759918E+03  0.7818608E-02  0.1097898E+00
          2   -1    0    0  501    0  0.00000000000E+00  0.00000000000E+00  0.37529065137E+03  0.37529065137E+03  0.00000000000E+00 0. -1.
         -2   -1    0    0    0  501 -0.00000000000E+00 -0.00000000000E+00 -0.50741652186E+02  0.50741652186E+02  0.00000000000E+00 0. -1.
         35    2    1    2    0    0  0.00000000000E+00  0.00000000000E+00  0.32454899919E+03  0.42603230356E+03  0.27599179481E+03 0.  0.
         25    1    3    3    0    0 -0.96849021975E+01  0.23805345138E+02  0.25968762688E+03  0.28722492117E+03  0.12000000000E+03 0.  0.
         25    1    3    3    0    0  0.96849021975E+01 -0.23805345138E+02  0.64861372310E+02  0.13880738239E+03  0.12000000000E+03 0.  0.
<mgrwt>
<rscale>  0 0.27599179E+03</rscale>
<asrwt>0</asrwt>
<pdfrwt beam="1">  1        2 0.57737021E-01 0.27599179E+03</pdfrwt>
<pdfrwt beam="2">  1       -2 0.78064083E-02 0.27599179E+03</pdfrwt>
<totfact> 0.83571084E+03</totfact>
</mgrwt>
</event>
<event>
 5    1  0.1139158E+001  0.2743020E+03  0.7818608E-02  0.1098842E+00
          2   -1    0    0  501    0  0.00000000000E+00  0.00000000000E+00  0.51554653508E+03  0.51554653508E+03  0.00000000000E+00 0.  1.
         -2   -1    0    0    0  501 -0.00000000000E+00 -0.00000000000E+00 -0.36486322018E+02  0.36486322018E+02  0.00000000000E+00 0.  1.
         35    2    1    2    0    0  0.00000000000E+00  0.00000000000E+00  0.47906021306E+03  0.55203285709E+03  0.27430200068E+03 0.  0.
         25    1    3    3    0    0 -0.67240653196E+01 -0.49599201165E+02  0.32737068608E+03  0.35224545408E+03  0.12000000000E+03 0.  0.
         25    1    3    3    0    0  0.67240653196E+01  0.49599201165E+02  0.15168952697E+03  0.19978740302E+03  0.12000000000E+03 0.  0.
<mgrwt>
<rscale>  0 0.27430200E+03</rscale>
<asrwt>0</asrwt>
<pdfrwt beam="1">  1        2 0.79314846E-01 0.27430200E+03</pdfrwt>
<pdfrwt beam="2">  1       -2 0.56132807E-02 0.27430200E+03</pdfrwt>
<totfact> 0.98036276E+03</totfact>
</mgrwt>
</event>
<event>
 5    1  0.1139158E+001  0.2750391E+03  0.7818608E-02  0.1098430E+00
         -1   -1    0    0    0  501 -0.00000000000E+00  0.00000000000E+00  0.10294173143E+03  0.10294173143E+03  0.00000000000E+00 0. -1.
          1   -1    0    0  501    0  0.00000000000E+00 -0.00000000000E+00 -0.18371195948E+03  0.18371195948E+03  0.00000000000E+00 0. -1.
         35    2    1    2    0    0  0.00000000000E+00  0.00000000000E+00 -0.80770228054E+02  0.28665369091E+03  0.27503910408E+03 0.  0.
         25    1    3    3    0    0  0.39743837849E+02  0.18583467020E+01 -0.96786945105E+02  0.15921915350E+03  0.12000000000E+03 0.  0.
         25    1    3    3    0    0 -0.39743837849E+02 -0.18583467020E+01  0.16016717051E+02  0.12743453741E+03  0.12000000000E+03 0.  0.
<mgrwt>
<rscale>  0 0.27503910E+03</rscale>
<asrwt>0</asrwt>
<pdfrwt beam="1">  1        1 0.28263378E-01 0.27503910E+03</pdfrwt>
<pdfrwt beam="2">  1       -1 0.15837190E-01 0.27503910E+03</pdfrwt>
<totfact> 0.47826337E+03</totfact>
</mgrwt>
</event>
<event>
 5    1  0.1139158E+001  0.2749633E+03  0.7818608E-02  0.1098472E+00
         -2   -1    0    0    0  501 -0.00000000000E+00  0.00000000000E+00  0.10780123357E+03  0.10780123357E+03  0.00000000000E+00 0. -1.
          2   -1    0    0  501    0  0.00000000000E+00 -0.00000000000E+00 -0.17533386522E+03  0.17533386522E+03  0.00000000000E+00 0. -1.
         35    2    1    2    0    0  0.00000000000E+00  0.00000000000E+00 -0.67532631653E+02  0.28313509879E+03  0.27496332088E+03 0.  0.
         25    1    3    3    0    0  0.18250212747E+02 -0.56505048745E+02 -0.65924510159E+02  0.14923783648E+03  0.12000000000E+03 0.  0.
         25    1    3    3    0    0 -0.18250212747E+02  0.56505048745E+02 -0.16081214941E+01  0.13389726231E+03  0.12000000000E+03 0.  0.
<mgrwt>
<rscale>  0 0.27496332E+03</rscale>
<asrwt>0</asrwt>
<pdfrwt beam="1">  1        2 0.26974441E-01 0.27496332E+03</pdfrwt>
<pdfrwt beam="2">  1       -2 0.16584805E-01 0.27496332E+03</pdfrwt>
<totfact> 0.56702825E+03</totfact>
</mgrwt>
</event>
<event>
 5    1  0.1139158E+001  0.2773201E+03  0.7818608E-02  0.1097162E+00
         -3   -1    0    0    0  501 -0.00000000000E+00  0.00000000000E+00  0.59445645420E+03  0.59445645420E+03  0.00000000000E+00 0.  1.
          3   -1    0    0  501    0  0.00000000000E+00 -0.00000000000E+00 -0.32343166861E+02  0.32343166861E+02  0.00000000000E+00 0.  1.
         35    2    1    2    0    0  0.00000000000E+00  0.00000000000E+00  0.56211328734E+03  0.62679962106E+03  0.27732006267E+03 0.  0.
         25    1    3    3    0    0 -0.57600956687E+01  0.34798837638E+02  0.41633817284E+03  0.43472015363E+03  0.12000000000E+03 0.  0.
         25    1    3    3    0    0  0.57600956687E+01 -0.34798837638E+02  0.14577511449E+03  0.19207946743E+03  0.12000000000E+03 0.  0.
<mgrwt>
<rscale>  0 0.27732006E+03</rscale>
<asrwt>0</asrwt>
<pdfrwt beam="1">  1        3 0.49758722E-02 0.27732006E+03</pdfrwt>
<pdfrwt beam="2">  1       -3 0.91454831E-01 0.27732006E+03</pdfrwt>
<totfact> 0.64677693E+02</totfact>
</mgrwt>
</event>
<event>
 5    1  0.1139158E+001  0.2744376E+03  0.7818608E-02  0.1098766E+00
          1   -1    0    0  501    0  0.00000000000E+00  0.00000000000E+00  0.31825050945E+03  0.31825050945E+03  0.00000000000E+00 0. -1.
         -1   -1    0    0    0  501 -0.00000000000E+00 -0.00000000000E+00 -0.59164099062E+02  0.59164099062E+02  0.00000000000E+00 0. -1.
         35    2    1    2    0    0  0.00000000000E+00  0.00000000000E+00  0.25908641039E+03  0.37741460852E+03  0.27443764077E+03 0.  0.
         25    1    3    3    0    0 -0.18030772103E+02 -0.63542553697E+02  0.11835051409E+03  0.18102378037E+03  0.12000000000E+03 0.  0.
         25    1    3    3    0    0  0.18030772103E+02  0.63542553697E+02  0.14073589630E+03  0.19639082815E+03  0.12000000000E+03 0.  0.
<mgrwt>
<rscale>  0 0.27443764E+03</rscale>
<asrwt>0</asrwt>
<pdfrwt beam="1">  1        1 0.48961616E-01 0.27443764E+03</pdfrwt>
<pdfrwt beam="2">  1       -1 0.91021693E-02 0.27443764E+03</pdfrwt>
<totfact> 0.56956198E+03</totfact>
</mgrwt>
</event>
<event>
 5    1  0.1139158E+001  0.2751694E+03  0.7818608E-02  0.1098357E+00
          2   -1    0    0  501    0  0.00000000000E+00  0.00000000000E+00  0.13090785358E+04  0.13090785358E+04  0.00000000000E+00 0. -1.
         -2   -1    0    0    0  501 -0.00000000000E+00 -0.00000000000E+00 -0.14460214558E+02  0.14460214558E+02  0.00000000000E+00 0. -1.
         35    2    1    2    0    0  0.00000000000E+00  0.00000000000E+00  0.12946183213E+04  0.13235387504E+04  0.27516944962E+03 0.  0.
         25    1    3    3    0    0 -0.18608943181E+02 -0.56065371342E+02  0.49219903741E+03  0.51004853794E+03  0.12000000000E+03 0.  0.
         25    1    3    3    0    0  0.18608943181E+02  0.56065371342E+02  0.80241928386E+03  0.81349021244E+03  0.12000000000E+03 0.  0.
<mgrwt>
<rscale>  0 0.27516945E+03</rscale>
<asrwt>0</asrwt>
<pdfrwt beam="1">  1        2 0.20139660E+00 0.27516945E+03</pdfrwt>
<pdfrwt beam="2">  1       -2 0.22246494E-02 0.27516945E+03</pdfrwt>
<totfact> 0.11449061E+04</totfact>
</mgrwt>
</event>
<event>
 5    1  0.1139158E+001  0.2755678E+03  0.7818608E-02  0.1098135E+00
         -2   -1    0    0    0  501 -0.00000000000E+00  0.00000000000E+00  0.23726520264E+02  0.23726520264E+02  0.00000000000E+00 0. -1.
          2   -1    0    0  501    0  0.00000000000E+00 -0.00000000000E+00 -0.80013432549E+03  0.80013432549E+03  0.00000000000E+00 0. -1.
         35    2    1    2    0    0  0.00000000000E+00  0.00000000000E+00 -0.77640780523E+03  0.82386084576E+03  0.27556780137E+03 0.  0.
         25    1    3    3    0    0 -0.47104240321E+02 -0.16250476323E+02 -0.25114989882E+03  0.28277050609E+03  0.12000000000E+03 0.  0.
         25    1    3    3    0    0  0.47104240321E+02  0.16250476323E+02 -0.52525790641E+03  0.54109033967E+03  0.12000000000E+03 0.  0.
<mgrwt>
<rscale>  0 0.27556780E+03</rscale>
<asrwt>0</asrwt>
<pdfrwt beam="1">  1        2 0.12309758E+00 0.27556780E+03</pdfrwt>
<pdfrwt beam="2">  1       -2 0.36502342E-02 0.27556780E+03</pdfrwt>
<totfact> 0.11154241E+04</totfact>
</mgrwt>
</event>
<event>
 5    1  0.1139158E+001  0.2745554E+03  0.7818608E-02  0.1098700E+00
         -2   -1    0    0    0  501 -0.00000000000E+00  0.00000000000E+00  0.23398163678E+02  0.23398163678E+02  0.00000000000E+00 0.  1.
          2   -1    0    0  501    0  0.00000000000E+00 -0.00000000000E+00 -0.80541235287E+03  0.80541235287E+03  0.00000000000E+00 0.  1.
         35    2    1    2    0    0  0.00000000000E+00  0.00000000000E+00 -0.78201418919E+03  0.82881051655E+03  0.27455542290E+03 0.  0.
         25    1    3    3    0    0  0.29945550076E+02 -0.40139866709E+02 -0.25814066004E+03  0.28904073283E+03  0.12000000000E+03 0.  0.
         25    1    3    3    0    0 -0.29945550076E+02  0.40139866709E+02 -0.52387352915E+03  0.53976978371E+03  0.12000000000E+03 0.  0.
<mgrwt>
<rscale>  0 0.27455542E+03</rscale>
<asrwt>0</asrwt>
<pdfrwt beam="1">  1        2 0.12390960E+00 0.27455542E+03</pdfrwt>
<pdfrwt beam="2">  1       -2 0.35997172E-02 0.27455542E+03</pdfrwt>
<totfact> 0.11293088E+04</totfact>
</mgrwt>
</event>
<event>
 5    1  0.1139158E+001  0.2761631E+03  0.7818608E-02  0.1097803E+00
          2   -1    0    0  501    0  0.00000000000E+00  0.00000000000E+00  0.36648475600E+03  0.36648475600E+03  0.00000000000E+00 0.  1.
         -2   -1    0    0    0  501 -0.00000000000E+00 -0.00000000000E+00 -0.52025404359E+02  0.52025404359E+02  0.00000000000E+00 0.  1.
         35    2    1    2    0    0  0.00000000000E+00  0.00000000000E+00  0.31445935164E+03  0.41851016036E+03  0.27616312297E+03 0.  0.
         25    1    3    3    0    0 -0.45923745579E+02  0.43818860464E+02  0.11896851296E+03  0.18050648192E+03  0.12000000000E+03 0.  0.
         25    1    3    3    0    0  0.45923745579E+02 -0.43818860464E+02  0.19549083868E+03  0.23800367843E+03  0.12000000000E+03 0.  0.
<mgrwt>
<rscale>  0 0.27616312E+03</rscale>
<asrwt>0</asrwt>
<pdfrwt beam="1">  1        2 0.56382269E-01 0.27616312E+03</pdfrwt>
<pdfrwt beam="2">  1       -2 0.80039086E-02 0.27616312E+03</pdfrwt>
<totfact> 0.82468125E+03</totfact>
</mgrwt>
</event>
<event>
 5    1  0.1139158E+001  0.2751847E+03  0.7818608E-02  0.1098348E+00
          1   -1    0    0  501    0  0.00000000000E+00  0.00000000000E+00  0.36135936099E+03  0.36135936099E+03  0.00000000000E+00 0.  1.
         -1   -1    0    0    0  501 -0.00000000000E+00 -0.00000000000E+00 -0.52390112138E+02  0.52390112138E+02  0.00000000000E+00 0.  1.
         35    2    1    2    0    0  0.00000000000E+00  0.00000000000E+00  0.30896924885E+03  0.41374947312E+03  0.27518471937E+03 0.  0.
         25    1    3    3    0    0  0.43803377452E+02 -0.21560307183E+02  0.22416938810E+03  0.25891214201E+03  0.12000000000E+03 0.  0.
         25    1    3    3    0    0 -0.43803377452E+02  0.21560307183E+02  0.84799860751E+02  0.15483733111E+03  0.12000000000E+03 0.  0.
<mgrwt>
<rscale>  0 0.27518472E+03</rscale>
<asrwt>0</asrwt>
<pdfrwt beam="1">  1        1 0.55593746E-01 0.27518472E+03</pdfrwt>
<pdfrwt beam="2">  1       -1 0.80600175E-02 0.27518472E+03</pdfrwt>
<totfact> 0.58437612E+03</totfact>
</mgrwt>
</event>
<event>
 5    1  0.1139158E+001  0.2749649E+03  0.7818608E-02  0.1098471E+00
         -2   -1    0    0    0  501 -0.00000000000E+00  0.00000000000E+00  0.13242908629E+02  0.13242908629E+02  0.00000000000E+00 0. -1.
          2   -1    0    0  501    0  0.00000000000E+00 -0.00000000000E+00 -0.14272868528E+04  0.14272868528E+04  0.00000000000E+00 0. -1.
         35    2    1    2    0    0  0.00000000000E+00  0.00000000000E+00 -0.14140439441E+04  0.14405297614E+04  0.27496493870E+03 0.  0.
         25    1    3    3    0    0 -0.61368317938E+02 -0.27025654771E+02 -0.69533907694E+03  0.70879678920E+03  0.12000000000E+03 0.  0.
         25    1    3    3    0    0  0.61368317938E+02  0.27025654771E+02 -0.71870486721E+03  0.73173297221E+03  0.12000000000E+03 0.  0.
<mgrwt>
<rscale>  0 0.27496494E+03</rscale>
<asrwt>0</asrwt>
<pdfrwt beam="1">  1        2 0.21958264E+00 0.27496494E+03</pdfrwt>
<pdfrwt beam="2">  1       -2 0.20373702E-02 0.27496494E+03</pdfrwt>
<totfact> 0.11232140E+04</totfact>
</mgrwt>
</event>
<event>
 5    1  0.1139158E+001  0.2751596E+03  0.7818608E-02  0.1098362E+00
          1   -1    0    0  501    0  0.00000000000E+00  0.00000000000E+00  0.17318827150E+04  0.17318827150E+04  0.00000000000E+00 0. -1.
         -1   -1    0    0    0  501 -0.00000000000E+00 -0.00000000000E+00 -0.10929264153E+02  0.10929264153E+02  0.00000000000E+00 0. -1.
         35    2    1    2    0    0  0.00000000000E+00  0.00000000000E+00  0.17209534509E+04  0.17428119792E+04  0.27515961677E+03 0.  0.
         25    1    3    3    0    0 -0.64229969550E+02 -0.20008873189E+02  0.87020626801E+03  0.88101350323E+03  0.12000000000E+03 0.  0.
         25    1    3    3    0    0  0.64229969550E+02  0.20008873189E+02  0.85074718286E+03  0.86179847594E+03  0.12000000000E+03 0.  0.
<mgrwt>
<rscale>  0 0.27515962E+03</rscale>
<asrwt>0</asrwt>
<pdfrwt beam="1">  1        1 0.26644328E+00 0.27515962E+03</pdfrwt>
<pdfrwt beam="2">  1       -1 0.16814266E-02 0.27515962E+03</pdfrwt>
<totfact> 0.44531944E+03</totfact>
</mgrwt>
</event>
<event>
 5    1  0.1139158E+001  0.2730138E+03  0.7818608E-02  0.1099567E+00
         -2   -1    0    0    0  501 -0.00000000000E+00  0.00000000000E+00  0.65368712781E+02  0.65368712781E+02  0.00000000000E+00 0.  1.
          2   -1    0    0  501    0  0.00000000000E+00 -0.00000000000E+00 -0.28506202003E+03  0.28506202003E+03  0.00000000000E+00 0.  1.
         35    2    1    2    0    0  0.00000000000E+00  0.00000000000E+00 -0.21969330725E+03  0.35043073281E+03  0.27301382611E+03 0.  0.
         25    1    3    3    0    0 -0.14720173169E+02 -0.23765889058E+02 -0.34425536023E+02  0.12793208554E+03  0.12000000000E+03 0.  0.
         25    1    3    3    0    0  0.14720173169E+02  0.23765889058E+02 -0.18526777122E+03  0.22249864727E+03  0.12000000000E+03 0.  0.
<mgrwt>
<rscale>  0 0.27301383E+03</rscale>
<asrwt>0</asrwt>
<pdfrwt beam="1">  1        2 0.43855695E-01 0.27301383E+03</pdfrwt>
<pdfrwt beam="2">  1       -2 0.10056725E-01 0.27301383E+03</pdfrwt>
<totfact> 0.75402599E+03</totfact>
</mgrwt>
</event>
<event>
 5    1  0.1139158E+001  0.2737994E+03  0.7818608E-02  0.1099125E+00
          1   -1    0    0  501    0  0.00000000000E+00  0.00000000000E+00  0.89576516282E+02  0.89576516282E+02  0.00000000000E+00 0.  1.
         -1   -1    0    0    0  501 -0.00000000000E+00 -0.00000000000E+00 -0.20922370048E+03  0.20922370048E+03  0.00000000000E+00 0.  1.
         35    2    1    2    0    0  0.00000000000E+00  0.00000000000E+00 -0.11964718420E+03  0.29880021676E+03  0.27379941718E+03 0.  0.
         25    1    3    3    0    0 -0.59886983896E+02  0.26049115898E+02 -0.50277091730E+02  0.14557744754E+03  0.12000000000E+03 0.  0.
         25    1    3    3    0    0  0.59886983896E+02 -0.26049115898E+02 -0.69370092466E+02  0.15322276922E+03  0.12000000000E+03 0.  0.
<mgrwt>
<rscale>  0 0.27379942E+03</rscale>
<asrwt>0</asrwt>
<pdfrwt beam="1">  1        1 0.13781003E-01 0.27379942E+03</pdfrwt>
<pdfrwt beam="2">  1       -1 0.32188261E-01 0.27379942E+03</pdfrwt>
<totfact> 0.37532433E+03</totfact>
</mgrwt>
</event>
<event>
 5    1  0.1139158E+001  0.2752416E+03  0.7818608E-02  0.1098317E+00
         -2   -1    0    0    0  501 -0.00000000000E+00  0.00000000000E+00  0.89020651148E+02  0.89020651148E+02  0.00000000000E+00 0. -1.
          2   -1    0    0  501    0  0.00000000000E+00 -0.00000000000E+00 -0.21275385293E+03  0.21275385293E+03  0.00000000000E+00 0. -1.
         35    2    1    2    0    0  0.00000000000E+00  0.00000000000E+00 -0.12373320179E+03  0.30177450408E+03  0.27524161402E+03 0.  0.
         25    1    3    3    0    0  0.13193765951E+02 -0.17582629763E+01  0.10548174493E+02  0.12119583711E+03  0.12000000000E+03 0.  0.
         25    1    3    3    0    0 -0.13193765951E+02  0.17582629763E+01 -0.13428137628E+03  0.18057866697E+03  0.12000000000E+03 0.  0.
<mgrwt>
<rscale>  0 0.27524161E+03</rscale>
<asrwt>0</asrwt>
<pdfrwt beam="1">  1        2 0.32731362E-01 0.27524161E+03</pdfrwt>
<pdfrwt beam="2">  1       -2 0.13695485E-01 0.27524161E+03</pdfrwt>
<totfact> 0.62914402E+03</totfact>
</mgrwt>
</event>
<event>
 5    1  0.1139158E+001  0.2746952E+03  0.7818608E-02  0.1098622E+00
         -2   -1    0    0    0  501 -0.00000000000E+00  0.00000000000E+00  0.19784197868E+02  0.19784197868E+02  0.00000000000E+00 0.  1.
          2   -1    0    0  501    0  0.00000000000E+00 -0.00000000000E+00 -0.95350668367E+03  0.95350668367E+03  0.00000000000E+00 0.  1.
         35    2    1    2    0    0  0.00000000000E+00  0.00000000000E+00 -0.93372248580E+03  0.97329088154E+03  0.27469521218E+03 0.  0.
         25    1    3    3    0    0  0.13443771678E+02 -0.49673862965E+02 -0.31586508510E+03  0.34178791617E+03  0.12000000000E+03 0.  0.
         25    1    3    3    0    0 -0.13443771678E+02  0.49673862965E+02 -0.61785740071E+03  0.63150296537E+03  0.12000000000E+03 0.  0.
<mgrwt>
<rscale>  0 0.27469521E+03</rscale>
<asrwt>0</asrwt>
<pdfrwt beam="1">  1        2 0.14669333E+00 0.27469521E+03</pdfrwt>
<pdfrwt beam="2">  1       -2 0.30437229E-02 0.27469521E+03</pdfrwt>
<totfact> 0.11603513E+04</totfact>
</mgrwt>
</event>
<event>
 5    1  0.1139158E+001  0.2745123E+03  0.7818608E-02  0.1098725E+00
         -2   -1    0    0    0  501 -0.00000000000E+00  0.00000000000E+00  0.29851525287E+02  0.29851525287E+02  0.00000000000E+00 0. -1.
          2   -1    0    0  501    0  0.00000000000E+00 -0.00000000000E+00 -0.63109824097E+03  0.63109824097E+03  0.00000000000E+00 0. -1.
         35    2    1    2    0    0  0.00000000000E+00  0.00000000000E+00 -0.60124671569E+03  0.66094976626E+03  0.27451225910E+03 0.  0.
         25    1    3    3    0    0  0.58118769503E+02  0.30851901103E+02 -0.27541528866E+03  0.30754383818E+03  0.12000000000E+03 0.  0.
         25    1    3    3    0    0 -0.58118769503E+02 -0.30851901103E+02 -0.32583142702E+03  0.35340592808E+03  0.12000000000E+03 0.  0.
<mgrwt>
<rscale>  0 0.27451226E+03</rscale>
<asrwt>0</asrwt>
<pdfrwt beam="1">  1        2 0.97092024E-01 0.27451226E+03</pdfrwt>
<pdfrwt beam="2">  1       -2 0.45925430E-02 0.27451226E+03</pdfrwt>
<totfact> 0.10545584E+04</totfact>
</mgrwt>
</event>
<event>
 5    1  0.1139158E+001  0.2753591E+03  0.7818608E-02  0.1098251E+00
         -2   -1    0    0    0  501 -0.00000000000E+00  0.00000000000E+00  0.29796185471E+03  0.29796185471E+03  0.00000000000E+00 0. -1.
          2   -1    0    0  501    0  0.00000000000E+00 -0.00000000000E+00 -0.63617736499E+02  0.63617736499E+02  0.00000000000E+00 0. -1.
         35    2    1    2    0    0  0.00000000000E+00  0.00000000000E+00  0.23434411821E+03  0.36157959121E+03  0.27535910197E+03 0.  0.
         25    1    3    3    0    0  0.54893533355E+02 -0.33490589006E+02  0.90237432273E+02  0.16333313730E+03  0.12000000000E+03 0.  0.
         25    1    3    3    0    0 -0.54893533355E+02  0.33490589006E+02  0.14410668593E+03  0.19824645391E+03  0.12000000000E+03 0.  0.
<mgrwt>
<rscale>  0 0.27535910E+03</rscale>
<asrwt>0</asrwt>
<pdfrwt beam="1">  1        2 0.97873442E-02 0.27535910E+03</pdfrwt>
<pdfrwt beam="2">  1       -2 0.45840285E-01 0.27535910E+03</pdfrwt>
<totfact> 0.29949940E+03</totfact>
</mgrwt>
</event>
<event>
 5    1  0.1139158E+001  0.2750151E+03  0.7818608E-02  0.1098443E+00
         -2   -1    0    0    0  501 -0.00000000000E+00  0.00000000000E+00  0.53574536183E+02  0.53574536183E+02  0.00000000000E+00 0. -1.
          2   -1    0    0  501    0  0.00000000000E+00 -0.00000000000E+00 -0.35293492265E+03  0.35293492265E+03  0.00000000000E+00 0. -1.
         35    2    1    2    0    0  0.00000000000E+00  0.00000000000E+00 -0.29936038647E+03  0.40650945884E+03  0.27501508892E+03 0.  0.
         25    1    3    3    0    0  0.40899068989E+02 -0.83273554140E+01 -0.22742287893E+03  0.26050574764E+03  0.12000000000E+03 0.  0.
         25    1    3    3    0    0 -0.40899068989E+02  0.83273554140E+01 -0.71937507544E+02  0.14600371120E+03  0.12000000000E+03 0.  0.
<mgrwt>
<rscale>  0 0.27501509E+03</rscale>
<asrwt>0</asrwt>
<pdfrwt beam="1">  1        2 0.54297683E-01 0.27501509E+03</pdfrwt>
<pdfrwt beam="2">  1       -2 0.82422360E-02 0.27501509E+03</pdfrwt>
<totfact> 0.82029878E+03</totfact>
</mgrwt>
</event>
<event>
 5    1  0.1139158E+001  0.2754298E+03  0.7818608E-02  0.1098212E+00
          1   -1    0    0  501    0  0.00000000000E+00  0.00000000000E+00  0.95717491011E+03  0.95717491011E+03  0.00000000000E+00 0. -1.
         -1   -1    0    0    0  501 -0.00000000000E+00 -0.00000000000E+00 -0.19813933596E+02  0.19813933596E+02  0.00000000000E+00 0. -1.
         35    2    1    2    0    0  0.00000000000E+00  0.00000000000E+00  0.93736097651E+03  0.97698884371E+03  0.27542984667E+03 0.  0.
         25    1    3    3    0    0  0.24143748420E+02 -0.61681192327E+02  0.42136766920E+03  0.44310066883E+03  0.12000000000E+03 0.  0.
         25    1    3    3    0    0 -0.24143748420E+02  0.61681192327E+02  0.51599330731E+03  0.53388817487E+03  0.12000000000E+03 0.  0.
<mgrwt>
<rscale>  0 0.27542985E+03</rscale>
<asrwt>0</asrwt>
<pdfrwt beam="1">  1        1 0.14725764E+00 0.27542985E+03</pdfrwt>
<pdfrwt beam="2">  1       -1 0.30482982E-02 0.27542985E+03</pdfrwt>
<totfact> 0.63440196E+03</totfact>
</mgrwt>
</event>
<event>
 5    1  0.1139158E+001  0.2750011E+03  0.7818608E-02  0.1098451E+00
         -1   -1    0    0    0  501 -0.00000000000E+00  0.00000000000E+00  0.13225695503E+02  0.13225695503E+02  0.00000000000E+00 0.  1.
          1   -1    0    0  501    0  0.00000000000E+00 -0.00000000000E+00 -0.14295200856E+04  0.14295200856E+04  0.00000000000E+00 0.  1.
         35    2    1    2    0    0  0.00000000000E+00  0.00000000000E+00 -0.14162943901E+04  0.14427457811E+04  0.27500107176E+03 0.  0.
         25    1    3    3    0    0  0.55234436188E+02 -0.29573099855E+02 -0.58169151781E+03  0.59723565958E+03  0.12000000000E+03 0.  0.
         25    1    3    3    0    0 -0.55234436188E+02  0.29573099855E+02 -0.83460287229E+03  0.84551012153E+03  0.12000000000E+03 0.  0.
<mgrwt>
<rscale>  0 0.27500107E+03</rscale>
<asrwt>0</asrwt>
<pdfrwt beam="1">  1        1 0.21992602E+00 0.27500107E+03</pdfrwt>
<pdfrwt beam="2">  1       -1 0.20347238E-02 0.27500107E+03</pdfrwt>
<totfact> 0.53314496E+03</totfact>
</mgrwt>
</event>
<event>
 5    1  0.1139158E+001  0.2754697E+03  0.7818608E-02  0.1098189E+00
          4   -1    0    0  501    0  0.00000000000E+00  0.00000000000E+00  0.35810536694E+02  0.35810536694E+02  0.00000000000E+00 0.  1.
         -4   -1    0    0    0  501 -0.00000000000E+00 -0.00000000000E+00 -0.52975726153E+03  0.52975726153E+03  0.00000000000E+00 0.  1.
         35    2    1    2    0    0  0.00000000000E+00  0.00000000000E+00 -0.49394672484E+03  0.56556779822E+03  0.27546972141E+03 0.  0.
         25    1    3    3    0    0 -0.25126394431E+02 -0.21975588024E+02 -0.36768168978E+03  0.38820624308E+03  0.12000000000E+03 0.  0.
         25    1    3    3    0    0  0.25126394431E+02  0.21975588024E+02 -0.12626503506E+03  0.17736155515E+03  0.12000000000E+03 0.  0.
<mgrwt>
<rscale>  0 0.27546972E+03</rscale>
<asrwt>0</asrwt>
<pdfrwt beam="1">  1        4 0.55093134E-02 0.27546972E+03</pdfrwt>
<pdfrwt beam="2">  1       -4 0.81501116E-01 0.27546972E+03</pdfrwt>
<totfact> 0.52090603E+02</totfact>
</mgrwt>
</event>
<event>
 5    1  0.1139158E+001  0.2780752E+03  0.7818608E-02  0.1096745E+00
          1   -1    0    0  501    0  0.00000000000E+00  0.00000000000E+00  0.21998683938E+02  0.21998683938E+02  0.00000000000E+00 0. -1.
         -1   -1    0    0    0  501 -0.00000000000E+00 -0.00000000000E+00 -0.87875481299E+03  0.87875481299E+03  0.00000000000E+00 0. -1.
         35    2    1    2    0    0  0.00000000000E+00  0.00000000000E+00 -0.85675612905E+03  0.90075349693E+03  0.27807516531E+03 0.  0.
         25    1    3    3    0    0 -0.14330629646E+02 -0.51271291558E+02 -0.28003137026E+03  0.30927605891E+03  0.12000000000E+03 0.  0.
         25    1    3    3    0    0  0.14330629646E+02  0.51271291558E+02 -0.57672475879E+03  0.59147743802E+03  0.12000000000E+03 0.  0.
<mgrwt>
<rscale>  0 0.27807517E+03</rscale>
<asrwt>0</asrwt>
<pdfrwt beam="1">  1        1 0.33844127E-02 0.27807517E+03</pdfrwt>
<pdfrwt beam="2">  1       -1 0.13519306E+00 0.27807517E+03</pdfrwt>
<totfact> 0.14200518E+03</totfact>
</mgrwt>
</event>
<event>
 5    1  0.1139158E+001  0.2752014E+03  0.7818608E-02  0.1098339E+00
          2   -1    0    0  501    0  0.00000000000E+00  0.00000000000E+00  0.38527692094E+03  0.38527692094E+03  0.00000000000E+00 0.  1.
         -2   -1    0    0    0  501 -0.00000000000E+00 -0.00000000000E+00 -0.49143740934E+02  0.49143740934E+02  0.00000000000E+00 0.  1.
         35    2    1    2    0    0  0.00000000000E+00  0.00000000000E+00  0.33613318000E+03  0.43442066187E+03  0.27520137493E+03 0.  0.
         25    1    3    3    0    0 -0.28816451541E+02  0.43780190141E+02  0.10133911629E+03  0.16557991853E+03  0.12000000000E+03 0.  0.
         25    1    3    3    0    0  0.28816451541E+02 -0.43780190141E+02  0.23479406371E+03  0.26884074334E+03  0.12000000000E+03 0.  0.
<mgrwt>
<rscale>  0 0.27520137E+03</rscale>
<asrwt>0</asrwt>
<pdfrwt beam="1">  1        2 0.59273370E-01 0.27520137E+03</pdfrwt>
<pdfrwt beam="2">  1       -2 0.75605758E-02 0.27520137E+03</pdfrwt>
<totfact> 0.85371045E+03</totfact>
</mgrwt>
</event>
<event>
 5    1  0.1139158E+001  0.2753331E+03  0.7818608E-02  0.1098266E+00
         -2   -1    0    0    0  501 -0.00000000000E+00  0.00000000000E+00  0.13006313582E+03  0.13006313582E+03  0.00000000000E+00 0. -1.
          2   -1    0    0  501    0  0.00000000000E+00 -0.00000000000E+00 -0.14571441641E+03  0.14571441641E+03  0.00000000000E+00 0. -1.
         35    2    1    2    0    0  0.00000000000E+00  0.00000000000E+00 -0.15651280589E+02  0.27577755223E+03  0.27533306327E+03 0.  0.
         25    1    3    3    0    0  0.48001966740E+02 -0.37011178194E+02  0.21854236991E+02  0.13620434573E+03  0.12000000000E+03 0.  0.
         25    1    3    3    0    0 -0.48001966740E+02  0.37011178194E+02 -0.37505517580E+02  0.13957320649E+03  0.12000000000E+03 0.  0.
<mgrwt>
<rscale>  0 0.27533306E+03</rscale>
<asrwt>0</asrwt>
<pdfrwt beam="1">  1        2 0.22417602E-01 0.27533306E+03</pdfrwt>
<pdfrwt beam="2">  1       -2 0.20009713E-01 0.27533306E+03</pdfrwt>
<totfact> 0.50792391E+03</totfact>
</mgrwt>
</event>
<event>
 5    1  0.1139158E+001  0.2756979E+03  0.7818608E-02  0.1098062E+00
          2   -1    0    0  501    0  0.00000000000E+00  0.00000000000E+00  0.31285850522E+04  0.31285850522E+04  0.00000000000E+00 0.  1.
         -2   -1    0    0    0  501 -0.00000000000E+00 -0.00000000000E+00 -0.60737766366E+01  0.60737766366E+01  0.00000000000E+00 0.  1.
         35    2    1    2    0    0  0.00000000000E+00  0.00000000000E+00  0.31225112756E+04  0.31346588288E+04  0.27569785487E+03 0.  0.
         25    1    3    3    0    0  0.64262791968E+02 -0.15516872263E+02  0.13881314815E+04  0.13948761557E+04  0.12000000000E+03 0.  0.
         25    1    3    3    0    0 -0.64262791968E+02  0.15516872263E+02  0.17343797941E+04  0.17397826732E+04  0.12000000000E+03 0.  0.
<mgrwt>
<rscale>  0 0.27569785E+03</rscale>
<asrwt>0</asrwt>
<pdfrwt beam="1">  1        2 0.48131949E+00 0.27569785E+03</pdfrwt>
<pdfrwt beam="2">  1       -2 0.93442967E-03 0.27569785E+03</pdfrwt>
<totfact> 0.41037110E+03</totfact>
</mgrwt>
</event>
<event>
 5    1  0.1139158E+001  0.2749006E+03  0.7818608E-02  0.1098507E+00
         -1   -1    0    0    0  501 -0.00000000000E+00  0.00000000000E+00  0.28543597287E+02  0.28543597287E+02  0.00000000000E+00 0. -1.
          1   -1    0    0  501    0  0.00000000000E+00 -0.00000000000E+00 -0.66188529347E+03  0.66188529347E+03  0.00000000000E+00 0. -1.
         35    2    1    2    0    0  0.00000000000E+00  0.00000000000E+00 -0.63334169618E+03  0.69042889076E+03  0.27490061671E+03 0.  0.
         25    1    3    3    0    0  0.51808074417E+01  0.50216445339E+02 -0.20593263052E+03  0.24363247005E+03  0.12000000000E+03 0.  0.
         25    1    3    3    0    0 -0.51808074417E+01 -0.50216445339E+02 -0.42740906566E+03  0.44679642071E+03  0.12000000000E+03 0.  0.
<mgrwt>
<rscale>  0 0.27490062E+03</rscale>
<asrwt>0</asrwt>
<pdfrwt beam="1">  1        1 0.10182851E+00 0.27490062E+03</pdfrwt>
<pdfrwt beam="2">  1       -1 0.43913226E-02 0.27490062E+03</pdfrwt>
<totfact> 0.65218223E+03</totfact>
</mgrwt>
</event>
<event>
 5    1  0.1139158E+001  0.2762114E+03  0.7818608E-02  0.1097776E+00
          2   -1    0    0  501    0  0.00000000000E+00  0.00000000000E+00  0.15354154087E+04  0.15354154087E+04  0.00000000000E+00 0. -1.
         -2   -1    0    0    0  501 -0.00000000000E+00 -0.00000000000E+00 -0.12422166882E+02  0.12422166882E+02  0.00000000000E+00 0. -1.
         35    2    1    2    0    0  0.00000000000E+00  0.00000000000E+00  0.15229932418E+04  0.15478375756E+04  0.27621141498E+03 0.  0.
         25    1    3    3    0    0  0.18398029918E+02 -0.62319465225E+02  0.64249196858E+03  0.65682427858E+03  0.12000000000E+03 0.  0.
         25    1    3    3    0    0 -0.18398029918E+02  0.62319465225E+02  0.88050127325E+03  0.89101329701E+03  0.12000000000E+03 0.  0.
<mgrwt>
<rscale>  0 0.27621141E+03</rscale>
<asrwt>0</asrwt>
<pdfrwt beam="1">  1        2 0.23621761E+00 0.27621141E+03</pdfrwt>
<pdfrwt beam="2">  1       -2 0.19111038E-02 0.27621141E+03</pdfrwt>
<totfact> 0.10797918E+04</totfact>
</mgrwt>
</event>
<event>
 5    1  0.1139158E+001  0.2739960E+03  0.7818608E-02  0.1099014E+00
         -4   -1    0    0    0  501 -0.00000000000E+00  0.00000000000E+00  0.12619970877E+03  0.12619970877E+03  0.00000000000E+00 0. -1.
          4   -1    0    0  501    0  0.00000000000E+00 -0.00000000000E+00 -0.14872025832E+03  0.14872025832E+03  0.00000000000E+00 0. -1.
         35    2    1    2    0    0  0.00000000000E+00  0.00000000000E+00 -0.22520549545E+02  0.27491996709E+03  0.27399600937E+03 0.  0.
         25    1    3    3    0    0  0.49801569806E+02 -0.19591582087E+02  0.27657462573E+02  0.13427196908E+03  0.12000000000E+03 0.  0.
         25    1    3    3    0    0 -0.49801569806E+02  0.19591582087E+02 -0.50178012118E+02  0.14064799801E+03  0.12000000000E+03 0.  0.
<mgrwt>
<rscale>  0 0.27399601E+03</rscale>
<asrwt>0</asrwt>
<pdfrwt beam="1">  1        4 0.22880040E-01 0.27399601E+03</pdfrwt>
<pdfrwt beam="2">  1       -4 0.19415340E-01 0.27399601E+03</pdfrwt>
<totfact> 0.78760204E+02</totfact>
</mgrwt>
</event>
<event>
 5    1  0.1139158E+001  0.2751140E+03  0.7818608E-02  0.1098388E+00
          2   -1    0    0  501    0  0.00000000000E+00  0.00000000000E+00  0.54511909741E+03  0.54511909741E+03  0.00000000000E+00 0.  1.
         -2   -1    0    0    0  501 -0.00000000000E+00 -0.00000000000E+00 -0.34711538504E+02  0.34711538504E+02  0.00000000000E+00 0.  1.
         35    2    1    2    0    0  0.00000000000E+00  0.00000000000E+00  0.51040755891E+03  0.57983063592E+03  0.27511395849E+03 0.  0.
         25    1    3    3    0    0 -0.56710209562E+02 -0.56311639123E+01  0.33043555479E+03  0.35613959867E+03  0.12000000000E+03 0.  0.
         25    1    3    3    0    0  0.56710209562E+02  0.56311639123E+01  0.17997200412E+03  0.22369103724E+03  0.12000000000E+03 0.  0.
<mgrwt>
<rscale>  0 0.27511396E+03</rscale>
<asrwt>0</asrwt>
<pdfrwt beam="1">  1        2 0.83864470E-01 0.27511396E+03</pdfrwt>
<pdfrwt beam="2">  1       -2 0.53402371E-02 0.27511396E+03</pdfrwt>
<totfact> 0.99335963E+03</totfact>
</mgrwt>
</event>
<event>
 5    1  0.1139158E+001  0.2749402E+03  0.7818608E-02  0.1098485E+00
         -1   -1    0    0    0  501 -0.00000000000E+00  0.00000000000E+00  0.97843580960E+01  0.97843580960E+01  0.00000000000E+00 0.  1.
          1   -1    0    0  501    0  0.00000000000E+00 -0.00000000000E+00 -0.19314528882E+04  0.19314528882E+04  0.00000000000E+00 0.  1.
         35    2    1    2    0    0  0.00000000000E+00  0.00000000000E+00 -0.19216685301E+04  0.19412372463E+04  0.27494018770E+03 0.  0.
         25    1    3    3    0    0 -0.28867232576E+02  0.53658903639E+01 -0.13865771115E+04  0.13920697526E+04  0.12000000000E+03 0.  0.
         25    1    3    3    0    0  0.28867232576E+02 -0.53658903639E+01 -0.53509141856E+03  0.54916749368E+03  0.12000000000E+03 0.  0.
<mgrwt>
<rscale>  0 0.27494019E+03</rscale>
<asrwt>0</asrwt>
<pdfrwt beam="1">  1        1 0.29714668E+00 0.27494019E+03</pdfrwt>
<pdfrwt beam="2">  1       -1 0.15052855E-02 0.27494019E+03</pdfrwt>
<totfact> 0.38814356E+03</totfact>
</mgrwt>
</event>
<event>
 5    1  0.1139158E+001  0.2753924E+03  0.7818608E-02  0.1098232E+00
         -2   -1    0    0    0  501 -0.00000000000E+00  0.00000000000E+00  0.74015531856E+01  0.74015531856E+01  0.00000000000E+00 0. -1.
          2   -1    0    0  501    0  0.00000000000E+00 -0.00000000000E+00 -0.25616564740E+04  0.25616564740E+04  0.00000000000E+00 0. -1.
         35    2    1    2    0    0  0.00000000000E+00  0.00000000000E+00 -0.25542549208E+04  0.25690580272E+04  0.27539235019E+03 0.  0.
         25    1    3    3    0    0 -0.27661930266E+02 -0.61358673081E+02 -0.13283653943E+04  0.13354717106E+04  0.12000000000E+03 0.  0.
         25    1    3    3    0    0  0.27661930266E+02  0.61358673081E+02 -0.12258895265E+04  0.12335863165E+04  0.12000000000E+03 0.  0.
<mgrwt>
<rscale>  0 0.27539235E+03</rscale>
<asrwt>0</asrwt>
<pdfrwt beam="1">  1        2 0.39410060E+00 0.27539235E+03</pdfrwt>
<pdfrwt beam="2">  1       -2 0.11387016E-02 0.27539235E+03</pdfrwt>
<totfact> 0.65458164E+03</totfact>
</mgrwt>
</event>
<event>
 5    1  0.1139158E+001  0.2764404E+03  0.7818608E-02  0.1097649E+00
          1   -1    0    0  501    0  0.00000000000E+00  0.00000000000E+00  0.53637315029E+03  0.53637315029E+03  0.00000000000E+00 0. -1.
         -1   -1    0    0    0  501 -0.00000000000E+00 -0.00000000000E+00 -0.35618522701E+02  0.35618522701E+02  0.00000000000E+00 0. -1.
         35    2    1    2    0    0  0.00000000000E+00  0.00000000000E+00  0.50075462759E+03  0.57199167299E+03  0.27644036775E+03 0.  0.
         25    1    3    3    0    0  0.12315790925E+02 -0.26569718763E+02  0.12203788735E+03  0.17364007202E+03  0.12000000000E+03 0.  0.
         25    1    3    3    0    0 -0.12315790925E+02  0.26569718763E+02  0.37871674024E+03  0.39835160097E+03  0.12000000000E+03 0.  0.
<mgrwt>
<rscale>  0 0.27644037E+03</rscale>
<asrwt>0</asrwt>
<pdfrwt beam="1">  1        1 0.82518941E-01 0.27644037E+03</pdfrwt>
<pdfrwt beam="2">  1       -1 0.54797731E-02 0.27644037E+03</pdfrwt>
<totfact> 0.62684723E+03</totfact>
</mgrwt>
</event>
<event>
 5    1  0.1139158E+001  0.2749794E+03  0.7818608E-02  0.1098463E+00
         -1   -1    0    0    0  501 -0.00000000000E+00  0.00000000000E+00  0.38239875383E+02  0.38239875383E+02  0.00000000000E+00 0.  1.
          1   -1    0    0  501    0  0.00000000000E+00 -0.00000000000E+00 -0.49433779941E+03  0.49433779941E+03  0.00000000000E+00 0.  1.
         35    2    1    2    0    0  0.00000000000E+00  0.00000000000E+00 -0.45609792402E+03  0.53257767479E+03  0.27497938720E+03 0.  0.
         25    1    3    3    0    0  0.23911726101E+02  0.55289634705E+02 -0.28533024701E+03  0.31534435814E+03  0.12000000000E+03 0.  0.
         25    1    3    3    0    0 -0.23911726101E+02 -0.55289634705E+02 -0.17076767702E+03  0.21723331665E+03  0.12000000000E+03 0.  0.
<mgrwt>
<rscale>  0 0.27497939E+03</rscale>
<asrwt>0</asrwt>
<pdfrwt beam="1">  1        1 0.76051964E-01 0.27497939E+03</pdfrwt>
<pdfrwt beam="2">  1       -1 0.58830581E-02 0.27497939E+03</pdfrwt>
<totfact> 0.62814974E+03</totfact>
</mgrwt>
</event>
<event>
 5    1  0.1139158E+001  0.2748008E+03  0.7818608E-02  0.1098563E+00
         -1   -1    0    0    0  501 -0.00000000000E+00  0.00000000000E+00  0.12619368974E+02  0.12619368974E+02  0.00000000000E+00 0.  1.
          1   -1    0    0  501    0  0.00000000000E+00 -0.00000000000E+00 -0.14960237229E+04  0.14960237229E+04  0.00000000000E+00 0.  1.
         35    2    1    2    0    0  0.00000000000E+00  0.00000000000E+00 -0.14834043539E+04  0.15086430919E+04  0.27480083954E+03 0.  0.
         25    1    3    3    0    0  0.18058020399E+02  0.35954284106E+01 -0.38846933258E+03  0.40699808545E+03  0.12000000000E+03 0.  0.
         25    1    3    3    0    0 -0.18058020399E+02 -0.35954284106E+01 -0.10949350214E+04  0.11016450064E+04  0.12000000000E+03 0.  0.
<mgrwt>
<rscale>  0 0.27480084E+03</rscale>
<asrwt>0</asrwt>
<pdfrwt beam="1">  1        1 0.23015731E+00 0.27480084E+03</pdfrwt>
<pdfrwt beam="2">  1       -1 0.19414429E-02 0.27480084E+03</pdfrwt>
<totfact> 0.51564745E+03</totfact>
</mgrwt>
</event>
<event>
 5    1  0.1139158E+001  0.2751815E+03  0.7818608E-02  0.1098350E+00
         -2   -1    0    0    0  501 -0.00000000000E+00  0.00000000000E+00  0.27793436722E+03  0.27793436722E+03  0.00000000000E+00 0. -1.
          2   -1    0    0  501    0  0.00000000000E+00 -0.00000000000E+00 -0.68113974982E+02  0.68113974982E+02  0.00000000000E+00 0. -1.
         35    2    1    2    0    0  0.00000000000E+00  0.00000000000E+00  0.20982039224E+03  0.34604834220E+03  0.27518150036E+03 0.  0.
         25    1    3    3    0    0  0.33978266164E+01 -0.50437947381E+02  0.49014786210E+02  0.13913296169E+03  0.12000000000E+03 0.  0.
         25    1    3    3    0    0 -0.33978266164E+01  0.50437947381E+02  0.16080560603E+03  0.20691538051E+03  0.12000000000E+03 0.  0.
<mgrwt>
<rscale>  0 0.27518150E+03</rscale>
<asrwt>0</asrwt>
<pdfrwt beam="1">  1        2 0.10479073E-01 0.27518150E+03</pdfrwt>
<pdfrwt beam="2">  1       -2 0.42759133E-01 0.27518150E+03</pdfrwt>
<totfact> 0.31509490E+03</totfact>
</mgrwt>
</event>
<event>
 5    1  0.1139158E+001  0.2749667E+03  0.7818608E-02  0.1098470E+00
          2   -1    0    0  501    0  0.00000000000E+00  0.00000000000E+00  0.24864075046E+04  0.24864075046E+04  0.00000000000E+00 0.  1.
         -2   -1    0    0    0  501 -0.00000000000E+00 -0.00000000000E+00 -0.76019984449E+01  0.76019984449E+01  0.00000000000E+00 0.  1.
         35    2    1    2    0    0  0.00000000000E+00  0.00000000000E+00  0.24788055062E+04  0.24940095031E+04  0.27496665968E+03 0.  0.
         25    1    3    3    0    0  0.56155437870E+02 -0.36529359545E+02  0.12056611838E+04  0.12134688778E+04  0.12000000000E+03 0.  0.
         25    1    3    3    0    0 -0.56155437870E+02  0.36529359545E+02  0.12731443224E+04  0.12805406253E+04  0.12000000000E+03 0.  0.
<mgrwt>
<rscale>  0 0.27496666E+03</rscale>
<asrwt>0</asrwt>
<pdfrwt beam="1">  1        2 0.38252358E+00 0.27496666E+03</pdfrwt>
<pdfrwt beam="2">  1       -2 0.11695402E-02 0.27496666E+03</pdfrwt>
<totfact> 0.69253053E+03</totfact>
</mgrwt>
</event>
<event>
 5    1  0.1139158E+001  0.2760131E+03  0.7818608E-02  0.1097887E+00
          2   -1    0    0  501    0  0.00000000000E+00  0.00000000000E+00  0.81260055675E+03  0.81260055675E+03  0.00000000000E+00 0.  1.
         -2   -1    0    0    0  501 -0.00000000000E+00 -0.00000000000E+00 -0.23438089332E+02  0.23438089332E+02  0.00000000000E+00 0.  1.
         35    2    1    2    0    0  0.00000000000E+00  0.00000000000E+00  0.78916246741E+03  0.83603864608E+03  0.27601307534E+03 0.  0.
         25    1    3    3    0    0  0.40808896925E+01  0.68006535059E+02  0.40083442671E+03  0.42392190331E+03  0.12000000000E+03 0.  0.
         25    1    3    3    0    0 -0.40808896925E+01 -0.68006535059E+02  0.38832804070E+03  0.41211674277E+03  0.12000000000E+03 0.  0.
<mgrwt>
<rscale>  0 0.27601308E+03</rscale>
<asrwt>0</asrwt>
<pdfrwt beam="1">  1        2 0.12501545E+00 0.27601308E+03</pdfrwt>
<pdfrwt beam="2">  1       -2 0.36058605E-02 0.27601308E+03</pdfrwt>
<totfact> 0.11139084E+04</totfact>
</mgrwt>
</event>
<event>
 5    1  0.1139158E+001  0.2746190E+03  0.7818608E-02  0.1098665E+00
         -1   -1    0    0    0  501 -0.00000000000E+00  0.00000000000E+00  0.41224645787E+01  0.41224645787E+01  0.00000000000E+00 0.  1.
          1   -1    0    0  501    0  0.00000000000E+00 -0.00000000000E+00 -0.45734522915E+04  0.45734522915E+04  0.00000000000E+00 0.  1.
         35    2    1    2    0    0  0.00000000000E+00  0.00000000000E+00 -0.45693298269E+04  0.45775747561E+04  0.27461897294E+03 0.  0.
         25    1    3    3    0    0 -0.15492092392E+02 -0.27735792768E+02 -0.13063575760E+04  0.13122421253E+04  0.12000000000E+03 0.  0.
         25    1    3    3    0    0  0.15492092392E+02  0.27735792768E+02 -0.32629722509E+04  0.32653326307E+04  0.12000000000E+03 0.  0.
<mgrwt>
<rscale>  0 0.27461897E+03</rscale>
<asrwt>0</asrwt>
<pdfrwt beam="1">  1        1 0.70361146E+00 0.27461897E+03</pdfrwt>
<pdfrwt beam="2">  1       -1 0.63422224E-03 0.27461897E+03</pdfrwt>
<totfact> 0.13549394E+02</totfact>
</mgrwt>
</event>
<event>
 5    1  0.1139158E+001  0.2759648E+03  0.7818608E-02  0.1097913E+00
         -3   -1    0    0    0  501 -0.00000000000E+00  0.00000000000E+00  0.78559969149E+02  0.78559969149E+02  0.00000000000E+00 0. -1.
          3   -1    0    0  501    0  0.00000000000E+00 -0.00000000000E+00 -0.24235178813E+03  0.24235178813E+03  0.00000000000E+00 0. -1.
         35    2    1    2    0    0  0.00000000000E+00  0.00000000000E+00 -0.16379181898E+03  0.32091175727E+03  0.27596484558E+03 0.  0.
         25    1    3    3    0    0  0.50337538889E+02 -0.42954384527E+02 -0.63137880429E+02  0.15088187073E+03  0.12000000000E+03 0.  0.
         25    1    3    3    0    0 -0.50337538889E+02  0.42954384527E+02 -0.10065393855E+03  0.17002988654E+03  0.12000000000E+03 0.  0.
<mgrwt>
<rscale>  0 0.27596485E+03</rscale>
<asrwt>0</asrwt>
<pdfrwt beam="1">  1        3 0.37284890E-01 0.27596485E+03</pdfrwt>
<pdfrwt beam="2">  1       -3 0.12086149E-01 0.27596485E+03</pdfrwt>
<totfact> 0.97161956E+02</totfact>
</mgrwt>
</event>
<event>
 5    1  0.1139158E+001  0.2754955E+03  0.7818608E-02  0.1098175E+00
          2   -1    0    0  501    0  0.00000000000E+00  0.00000000000E+00  0.15690891067E+03  0.15690891067E+03  0.00000000000E+00 0.  1.
         -2   -1    0    0    0  501 -0.00000000000E+00 -0.00000000000E+00 -0.12092649200E+03  0.12092649200E+03  0.00000000000E+00 0.  1.
         35    2    1    2    0    0  0.00000000000E+00  0.00000000000E+00  0.35982418674E+02  0.27783540267E+03  0.27549551089E+03 0.  0.
         25    1    3    3    0    0 -0.27331886596E+02  0.18302350170E+01 -0.44373017083E+02  0.13084092032E+03  0.12000000000E+03 0.  0.
         25    1    3    3    0    0  0.27331886596E+02 -0.18302350170E+01  0.80355435757E+02  0.14699448235E+03  0.12000000000E+03 0.  0.
<mgrwt>
<rscale>  0 0.27549551E+03</rscale>
<asrwt>0</asrwt>
<pdfrwt beam="1">  1        2 0.24139832E-01 0.27549551E+03</pdfrwt>
<pdfrwt beam="2">  1       -2 0.18604076E-01 0.27549551E+03</pdfrwt>
<totfact> 0.52902098E+03</totfact>
</mgrwt>
</event>
<event>
 5    1  0.1139158E+001  0.2754969E+03  0.7818608E-02  0.1098174E+00
         -2   -1    0    0    0  501 -0.00000000000E+00  0.00000000000E+00  0.14204747849E+02  0.14204747849E+02  0.00000000000E+00 0. -1.
          2   -1    0    0  501    0  0.00000000000E+00 -0.00000000000E+00 -0.13357949740E+04  0.13357949740E+04  0.00000000000E+00 0. -1.
         35    2    1    2    0    0  0.00000000000E+00  0.00000000000E+00 -0.13215902262E+04  0.13499997219E+04  0.27549686593E+03 0.  0.
         25    1    3    3    0    0 -0.29339105819E+02 -0.57277817594E+02 -0.55881611521E+03  0.57516691676E+03  0.12000000000E+03 0.  0.
         25    1    3    3    0    0  0.29339105819E+02  0.57277817594E+02 -0.76277411095E+03  0.77483280510E+03  0.12000000000E+03 0.  0.
<mgrwt>
<rscale>  0 0.27549687E+03</rscale>
<asrwt>0</asrwt>
<pdfrwt beam="1">  1        2 0.20550698E+00 0.27549687E+03</pdfrwt>
<pdfrwt beam="2">  1       -2 0.21853451E-02 0.27549687E+03</pdfrwt>
<totfact> 0.11362545E+04</totfact>
</mgrwt>
</event>
<event>
 5    1  0.1139158E+001  0.2750654E+03  0.7818608E-02  0.1098415E+00
         -2   -1    0    0    0  501 -0.00000000000E+00  0.00000000000E+00  0.17871056698E+03  0.17871056698E+03  0.00000000000E+00 0.  1.
          2   -1    0    0  501    0  0.00000000000E+00 -0.00000000000E+00 -0.10584285589E+03  0.10584285589E+03  0.00000000000E+00 0.  1.
         35    2    1    2    0    0  0.00000000000E+00  0.00000000000E+00  0.72867711092E+02  0.28455342288E+03  0.27506535069E+03 0.  0.
         25    1    3    3    0    0  0.47670988231E+01 -0.65489951176E+02  0.51194087778E+02  0.14605647387E+03  0.12000000000E+03 0.  0.
         25    1    3    3    0    0 -0.47670988231E+01  0.65489951176E+02  0.21673623314E+02  0.13849694901E+03  0.12000000000E+03 0.  0.
<mgrwt>
<rscale>  0 0.27506535E+03</rscale>
<asrwt>0</asrwt>
<pdfrwt beam="1">  1        2 0.16283516E-01 0.27506535E+03</pdfrwt>
<pdfrwt beam="2">  1       -2 0.27493933E-01 0.27506535E+03</pdfrwt>
<totfact> 0.42105470E+03</totfact>
</mgrwt>
</event>
<event>
 5    1  0.1139158E+001  0.2748104E+03  0.7818608E-02  0.1098558E+00
         -1   -1    0    0    0  501 -0.00000000000E+00  0.00000000000E+00  0.77433522338E+01  0.77433522338E+01  0.00000000000E+00 0.  1.
          1   -1    0    0  501    0  0.00000000000E+00 -0.00000000000E+00 -0.24382452142E+04  0.24382452142E+04  0.00000000000E+00 0.  1.
         35    2    1    2    0    0  0.00000000000E+00  0.00000000000E+00 -0.24305018619E+04  0.24459885664E+04  0.27481041848E+03 0.  0.
         25    1    3    3    0    0  0.62808925968E+01  0.44093144661E+02 -0.16599745445E+04  0.16649021423E+04  0.12000000000E+03 0.  0.
         25    1    3    3    0    0 -0.62808925968E+01 -0.44093144661E+02 -0.77052731746E+03  0.78108642414E+03  0.12000000000E+03 0.  0.
<mgrwt>
<rscale>  0 0.27481042E+03</rscale>
<asrwt>0</asrwt>
<pdfrwt beam="1">  1        1 0.37511455E+00 0.27481042E+03</pdfrwt>
<pdfrwt beam="2">  1       -1 0.11912853E-02 0.27481042E+03</pdfrwt>
<totfact> 0.25432373E+03</totfact>
</mgrwt>
</event>
<event>
 5    1  0.1139158E+001  0.2737824E+03  0.7818608E-02  0.1099134E+00
          1   -1    0    0  501    0  0.00000000000E+00  0.00000000000E+00  0.24839145291E+03  0.24839145291E+03  0.00000000000E+00 0.  1.
         -1   -1    0    0    0  501 -0.00000000000E+00 -0.00000000000E+00 -0.75442224944E+02  0.75442224944E+02  0.00000000000E+00 0.  1.
         35    2    1    2    0    0  0.00000000000E+00  0.00000000000E+00  0.17294922796E+03  0.32383367785E+03  0.27378242357E+03 0.  0.
         25    1    3    3    0    0  0.12424816614E+02 -0.48376939960E+00  0.99602274859E+01  0.12105294805E+03  0.12000000000E+03 0.  0.
         25    1    3    3    0    0 -0.12424816614E+02  0.48376939960E+00  0.16298900048E+03  0.20278072980E+03  0.12000000000E+03 0.  0.
<mgrwt>
<rscale>  0 0.27378242E+03</rscale>
<asrwt>0</asrwt>
<pdfrwt beam="1">  1        1 0.38214069E-01 0.27378242E+03</pdfrwt>
<pdfrwt beam="2">  1       -1 0.11606496E-01 0.27378242E+03</pdfrwt>
<totfact> 0.53373745E+03</totfact>
</mgrwt>
</event>
<event>
 5    1  0.1139158E+001  0.2746780E+03  0.7818608E-02  0.1098632E+00
         -1   -1    0    0    0  501 -0.00000000000E+00  0.00000000000E+00  0.64608871872E+02  0.64608871872E+02  0.00000000000E+00 0. -1.
          1   -1    0    0  501    0  0.00000000000E+00 -0.00000000000E+00 -0.29194129728E+03  0.29194129728E+03  0.00000000000E+00 0. -1.
         35    2    1    2    0    0  0.00000000000E+00  0.00000000000E+00 -0.22733242541E+03  0.35655016916E+03  0.27467797779E+03 0.  0.
         25    1    3    3    0    0 -0.19502194367E+01  0.57147420396E+01 -0.27312750214E+02  0.12321707656E+03  0.12000000000E+03 0.  0.
         25    1    3    3    0    0  0.19502194367E+01 -0.57147420396E+01 -0.20001967520E+03  0.23333309259E+03  0.12000000000E+03 0.  0.
<mgrwt>
<rscale>  0 0.27467798E+03</rscale>
<asrwt>0</asrwt>
<pdfrwt beam="1">  1        1 0.44914046E-01 0.27467798E+03</pdfrwt>
<pdfrwt beam="2">  1       -1 0.99398263E-02 0.27467798E+03</pdfrwt>
<totfact> 0.55435259E+03</totfact>
</mgrwt>
</event>
<event>
 5    1  0.1139158E+001  0.2738151E+03  0.7818608E-02  0.1099116E+00
          2   -1    0    0  501    0  0.00000000000E+00  0.00000000000E+00  0.26515150769E+03  0.26515150769E+03  0.00000000000E+00 0. -1.
         -2   -1    0    0    0  501 -0.00000000000E+00 -0.00000000000E+00 -0.70690435473E+02  0.70690435473E+02  0.00000000000E+00 0. -1.
         35    2    1    2    0    0  0.00000000000E+00  0.00000000000E+00  0.19446107222E+03  0.33584194316E+03  0.27381508757E+03 0.  0.
         25    1    3    3    0    0 -0.28486367226E+02 -0.43651300023E+02  0.14670033681E+03  0.19656525108E+03  0.12000000000E+03 0.  0.
         25    1    3    3    0    0  0.28486367226E+02  0.43651300023E+02  0.47760735408E+02  0.13927669209E+03  0.12000000000E+03 0.  0.
<mgrwt>
<rscale>  0 0.27381509E+03</rscale>
<asrwt>0</asrwt>
<pdfrwt beam="1">  1        2 0.40792539E-01 0.27381509E+03</pdfrwt>
<pdfrwt beam="2">  1       -2 0.10875452E-01 0.27381509E+03</pdfrwt>
<totfact> 0.71953033E+03</totfact>
</mgrwt>
</event>
<event>
 5    1  0.1139158E+001  0.2749310E+03  0.7818608E-02  0.1098490E+00
          1   -1    0    0  501    0  0.00000000000E+00  0.00000000000E+00  0.10691154683E+04  0.10691154683E+04  0.00000000000E+00 0. -1.
         -1   -1    0    0    0  501 -0.00000000000E+00 -0.00000000000E+00 -0.17675133337E+02  0.17675133337E+02  0.00000000000E+00 0. -1.
         35    2    1    2    0    0  0.00000000000E+00  0.00000000000E+00  0.10514403349E+04  0.10867906016E+04  0.27493096191E+03 0.  0.
         25    1    3    3    0    0  0.63231950559E+02  0.22101547550E+02  0.51321951688E+03  0.53130126151E+03  0.12000000000E+03 0.  0.
         25    1    3    3    0    0 -0.63231950559E+02 -0.22101547550E+02  0.53822081804E+03  0.55548934008E+03  0.12000000000E+03 0.  0.
<mgrwt>
<rscale>  0 0.27493096E+03</rscale>
<asrwt>0</asrwt>
<pdfrwt beam="1">  1        1 0.16447925E+00 0.27493096E+03</pdfrwt>
<pdfrwt beam="2">  1       -1 0.27192521E-02 0.27493096E+03</pdfrwt>
<totfact> 0.61955311E+03</totfact>
</mgrwt>
</event>
<event>
 5    1  0.1139158E+001  0.2745210E+03  0.7818608E-02  0.1098720E+00
          1   -1    0    0  501    0  0.00000000000E+00  0.00000000000E+00  0.18107066602E+03  0.18107066602E+03  0.00000000000E+00 0. -1.
         -1   -1    0    0    0  501 -0.00000000000E+00 -0.00000000000E+00 -0.10405026964E+03  0.10405026964E+03  0.00000000000E+00 0. -1.
         35    2    1    2    0    0  0.00000000000E+00  0.00000000000E+00  0.77020396377E+02  0.28512093567E+03  0.27452104928E+03 0.  0.
         25    1    3    3    0    0  0.64423046769E+02  0.14572776705E+02  0.47668665127E+02  0.14503446629E+03  0.12000000000E+03 0.  0.
         25    1    3    3    0    0 -0.64423046769E+02 -0.14572776705E+02  0.29351731250E+02  0.14008646938E+03  0.12000000000E+03 0.  0.
<mgrwt>
<rscale>  0 0.27452105E+03</rscale>
<asrwt>0</asrwt>
<pdfrwt beam="1">  1        1 0.27857026E-01 0.27452105E+03</pdfrwt>
<pdfrwt beam="2">  1       -1 0.16007734E-01 0.27452105E+03</pdfrwt>
<totfact> 0.47883164E+03</totfact>
</mgrwt>
</event>
<event>
 5    1  0.1139158E+001  0.2751103E+03  0.7818608E-02  0.1098390E+00
         -2   -1    0    0    0  501 -0.00000000000E+00  0.00000000000E+00  0.16430268306E+03  0.16430268306E+03  0.00000000000E+00 0.  1.
          2   -1    0    0  501    0  0.00000000000E+00 -0.00000000000E+00 -0.11516198342E+03  0.11516198342E+03  0.00000000000E+00 0.  1.
         35    2    1    2    0    0  0.00000000000E+00  0.00000000000E+00  0.49140699636E+02  0.27946466649E+03  0.27511032597E+03 0.  0.
         25    1    3    3    0    0 -0.61272984187E+02 -0.21470254998E+02  0.67985212380E+01  0.13660735826E+03  0.12000000000E+03 0.  0.
         25    1    3    3    0    0  0.61272984187E+02  0.21470254998E+02  0.42342178398E+02  0.14285730822E+03  0.12000000000E+03 0.  0.
<mgrwt>
<rscale>  0 0.27511033E+03</rscale>
<asrwt>0</asrwt>
<pdfrwt beam="1">  1        2 0.17717228E-01 0.27511033E+03</pdfrwt>
<pdfrwt beam="2">  1       -2 0.25277336E-01 0.27511033E+03</pdfrwt>
<totfact> 0.44306477E+03</totfact>
</mgrwt>
</event>
<event>
 5    1  0.1139158E+001  0.2748738E+03  0.7818608E-02  0.1098522E+00
         -2   -1    0    0    0  501 -0.00000000000E+00  0.00000000000E+00  0.41426691405E+02  0.41426691405E+02  0.00000000000E+00 0.  1.
          2   -1    0    0  501    0  0.00000000000E+00 -0.00000000000E+00 -0.45595960934E+03  0.45595960934E+03  0.00000000000E+00 0.  1.
         35    2    1    2    0    0  0.00000000000E+00  0.00000000000E+00 -0.41453291793E+03  0.49738630074E+03  0.27487377488E+03 0.  0.
         25    1    3    3    0    0  0.24176480576E+02  0.62249225309E+02 -0.21708289650E+03  0.25687438996E+03  0.12000000000E+03 0.  0.
         25    1    3    3    0    0 -0.24176480576E+02 -0.62249225309E+02 -0.19745002143E+03  0.24051191078E+03  0.12000000000E+03 0.  0.
<mgrwt>
<rscale>  0 0.27487377E+03</rscale>
<asrwt>0</asrwt>
<pdfrwt beam="1">  1        2 0.70147634E-01 0.27487377E+03</pdfrwt>
<pdfrwt beam="2">  1       -2 0.63733370E-02 0.27487377E+03</pdfrwt>
<totfact> 0.92514956E+03</totfact>
</mgrwt>
</event>
<event>
 5    1  0.1139158E+001  0.2756142E+03  0.7818608E-02  0.1098109E+00
          2   -1    0    0  501    0  0.00000000000E+00  0.00000000000E+00  0.12538930775E+04  0.12538930775E+04  0.00000000000E+00 0.  1.
         -2   -1    0    0    0  501 -0.00000000000E+00 -0.00000000000E+00 -0.15145470526E+02  0.15145470526E+02  0.00000000000E+00 0.  1.
         35    2    1    2    0    0  0.00000000000E+00  0.00000000000E+00  0.12387476070E+04  0.12690385480E+04  0.27561422785E+03 0.  0.
         25    1    3    3    0    0  0.67437873458E+02 -0.52128872539E+01  0.63765256886E+03  0.65236173979E+03  0.12000000000E+03 0.  0.
         25    1    3    3    0    0 -0.67437873458E+02  0.52128872539E+01  0.60109503811E+03  0.61667680823E+03  0.12000000000E+03 0.  0.
<mgrwt>
<rscale>  0 0.27561423E+03</rscale>
<asrwt>0</asrwt>
<pdfrwt beam="1">  1        2 0.19290655E+00 0.27561423E+03</pdfrwt>
<pdfrwt beam="2">  1       -2 0.23300734E-02 0.27561423E+03</pdfrwt>
<totfact> 0.11476296E+04</totfact>
</mgrwt>
</event>
<event>
 5    1  0.1139158E+001  0.2731136E+03  0.7818608E-02  0.1099511E+00
          1   -1    0    0  501    0  0.00000000000E+00  0.00000000000E+00  0.11837761800E+03  0.11837761800E+03  0.00000000000E+00 0. -1.
         -1   -1    0    0    0  501 -0.00000000000E+00 -0.00000000000E+00 -0.15752777455E+03  0.15752777455E+03  0.00000000000E+00 0. -1.
         35    2    1    2    0    0  0.00000000000E+00  0.00000000000E+00 -0.39150156548E+02  0.27590539255E+03  0.27311362265E+03 0.  0.
         25    1    3    3    0    0 -0.35211498896E+02  0.22071587208E+02 -0.70295448146E+02  0.14514976626E+03  0.12000000000E+03 0.  0.
         25    1    3    3    0    0  0.35211498896E+02 -0.22071587208E+02  0.31145291598E+02  0.13075562628E+03  0.12000000000E+03 0.  0.
<mgrwt>
<rscale>  0 0.27311362E+03</rscale>
<asrwt>0</asrwt>
<pdfrwt beam="1">  1        1 0.18211941E-01 0.27311362E+03</pdfrwt>
<pdfrwt beam="2">  1       -1 0.24235042E-01 0.27311362E+03</pdfrwt>
<totfact> 0.42060091E+03</totfact>
</mgrwt>
</event>
<event>
 5    1  0.1139158E+001  0.2749475E+03  0.7818608E-02  0.1098481E+00
          2   -1    0    0  501    0  0.00000000000E+00  0.00000000000E+00  0.52184874321E+03  0.52184874321E+03  0.00000000000E+00 0. -1.
         -2   -1    0    0    0  501 -0.00000000000E+00 -0.00000000000E+00 -0.36215539980E+02  0.36215539980E+02  0.00000000000E+00 0. -1.
         35    2    1    2    0    0  0.00000000000E+00  0.00000000000E+00  0.48563320323E+03  0.55806428319E+03  0.27494751516E+03 0.  0.
         25    1    3    3    0    0  0.43786247735E+02 -0.48259092909E+02  0.21054108564E+03  0.25094566002E+03  0.12000000000E+03 0.  0.
         25    1    3    3    0    0 -0.43786247735E+02  0.48259092909E+02  0.27509211759E+03  0.30711862317E+03  0.12000000000E+03 0.  0.
<mgrwt>
<rscale>  0 0.27494752E+03</rscale>
<asrwt>0</asrwt>
<pdfrwt beam="1">  1        2 0.80284417E-01 0.27494752E+03</pdfrwt>
<pdfrwt beam="2">  1       -2 0.55716219E-02 0.27494752E+03</pdfrwt>
<totfact> 0.97820104E+03</totfact>
</mgrwt>
</event>
<event>
 5    1  0.1139158E+001  0.2754816E+03  0.7818608E-02  0.1098183E+00
         -1   -1    0    0    0  501 -0.00000000000E+00  0.00000000000E+00  0.37787630118E+03  0.37787630118E+03  0.00000000000E+00 0. -1.
          1   -1    0    0  501    0  0.00000000000E+00 -0.00000000000E+00 -0.50208316898E+02  0.50208316898E+02  0.00000000000E+00 0. -1.
         35    2    1    2    0    0  0.00000000000E+00  0.00000000000E+00  0.32766798428E+03  0.42808461807E+03  0.27548163697E+03 0.  0.
         25    1    3    3    0    0  0.55708009997E+02 -0.25810789666E+02  0.20786739583E+03  0.24774671237E+03  0.12000000000E+03 0.  0.
         25    1    3    3    0    0 -0.55708009997E+02  0.25810789666E+02  0.11980058845E+03  0.18033790570E+03  0.12000000000E+03 0.  0.
<mgrwt>
<rscale>  0 0.27548164E+03</rscale>
<asrwt>0</asrwt>
<pdfrwt beam="1">  1        1 0.77243567E-02 0.27548164E+03</pdfrwt>
<pdfrwt beam="2">  1       -1 0.58134814E-01 0.27548164E+03</pdfrwt>
<totfact> 0.28093257E+03</totfact>
</mgrwt>
</event>
<event>
 5    1  0.1139158E+001  0.2746448E+03  0.7818608E-02  0.1098650E+00
          1   -1    0    0  501    0  0.00000000000E+00  0.00000000000E+00  0.10605484869E+04  0.10605484869E+04  0.00000000000E+00 0.  1.
         -1   -1    0    0    0  501 -0.00000000000E+00 -0.00000000000E+00 -0.17780840691E+02  0.17780840691E+02  0.00000000000E+00 0.  1.
         35    2    1    2    0    0  0.00000000000E+00  0.00000000000E+00  0.10427676462E+04  0.10783293276E+04  0.27464481565E+03 0.  0.
         25    1    3    3    0    0 -0.30361817629E+02 -0.39525486592E+02  0.34696998847E+03  0.37050273542E+03  0.12000000000E+03 0.  0.
         25    1    3    3    0    0  0.30361817629E+02  0.39525486592E+02  0.69579765773E+03  0.70782659215E+03  0.12000000000E+03 0.  0.
<mgrwt>
<rscale>  0 0.27464482E+03</rscale>
<asrwt>0</asrwt>
<pdfrwt beam="1">  1        1 0.16316126E+00 0.27464482E+03</pdfrwt>
<pdfrwt beam="2">  1       -1 0.27355148E-02 0.27464482E+03</pdfrwt>
<totfact> 0.62303062E+03</totfact>
</mgrwt>
</event>
<event>
 5    1  0.1139158E+001  0.2745524E+03  0.7818608E-02  0.1098702E+00
          1   -1    0    0  501    0  0.00000000000E+00  0.00000000000E+00  0.12155184421E+03  0.12155184421E+03  0.00000000000E+00 0. -1.
         -1   -1    0    0    0  501 -0.00000000000E+00 -0.00000000000E+00 -0.15503465830E+03  0.15503465830E+03  0.00000000000E+00 0. -1.
         35    2    1    2    0    0  0.00000000000E+00  0.00000000000E+00 -0.33482814092E+02  0.27658650252E+03  0.27455235299E+03 0.  0.
         25    1    3    3    0    0  0.30572661217E+02  0.56183912934E+02  0.21975854050E+01  0.13600054804E+03  0.12000000000E+03 0.  0.
         25    1    3    3    0    0 -0.30572661217E+02 -0.56183912934E+02 -0.35680399497E+02  0.14058595447E+03  0.12000000000E+03 0.  0.
<mgrwt>
<rscale>  0 0.27455235E+03</rscale>
<asrwt>0</asrwt>
<pdfrwt beam="1">  1        1 0.18700284E-01 0.27455235E+03</pdfrwt>
<pdfrwt beam="2">  1       -1 0.23851486E-01 0.27455235E+03</pdfrwt>
<totfact> 0.41737704E+03</totfact>
</mgrwt>
</event>
<event>
 5    1  0.1139158E+001  0.2746698E+03  0.7818608E-02  0.1098636E+00
          3   -1    0    0  501    0  0.00000000000E+00  0.00000000000E+00  0.12000986689E+03  0.12000986689E+03  0.00000000000E+00 0. -1.
         -3   -1    0    0    0  501 -0.00000000000E+00 -0.00000000000E+00 -0.15716101838E+03  0.15716101838E+03  0.00000000000E+00 0. -1.
         35    2    1    2    0    0  0.00000000000E+00  0.00000000000E+00 -0.37151151485E+02  0.27717088527E+03  0.27466978644E+03 0.  0.
         25    1    3    3    0    0 -0.36091815404E+02 -0.12055401578E+02  0.36814326020E+02  0.13116114686E+03  0.12000000000E+03 0.  0.
         25    1    3    3    0    0  0.36091815404E+02  0.12055401578E+02 -0.73965477505E+02  0.14600973840E+03  0.12000000000E+03 0.  0.
<mgrwt>
<rscale>  0 0.27466979E+03</rscale>
<asrwt>0</asrwt>
<pdfrwt beam="1">  1        3 0.18463056E-01 0.27466979E+03</pdfrwt>
<pdfrwt beam="2">  1       -3 0.24178618E-01 0.27466979E+03</pdfrwt>
<totfact> 0.10494322E+03</totfact>
</mgrwt>
</event>
<event>
 5    1  0.1139158E+001  0.2747756E+03  0.7818608E-02  0.1098577E+00
         -1   -1    0    0    0  501 -0.00000000000E+00  0.00000000000E+00  0.21228954666E+04  0.21228954666E+04  0.00000000000E+00 0.  1.
          1   -1    0    0  501    0  0.00000000000E+00 -0.00000000000E+00 -0.88913490655E+01  0.88913490655E+01  0.00000000000E+00 0.  1.
         35    2    1    2    0    0  0.00000000000E+00  0.00000000000E+00  0.21140041176E+04  0.21317868157E+04  0.27477557842E+03 0.  0.
         25    1    3    3    0    0  0.16947040050E+02 -0.30709863475E+01  0.15585240178E+04  0.15632318277E+04  0.12000000000E+03 0.  0.
         25    1    3    3    0    0 -0.16947040050E+02  0.30709863475E+01  0.55548009981E+03  0.56855498802E+03  0.12000000000E+03 0.  0.
<mgrwt>
<rscale>  0 0.27477558E+03</rscale>
<asrwt>0</asrwt>
<pdfrwt beam="1">  1        1 0.13679015E-02 0.27477558E+03</pdfrwt>
<pdfrwt beam="2">  1       -1 0.32659890E+00 0.27477558E+03</pdfrwt>
<totfact> 0.27270590E+02</totfact>
</mgrwt>
</event>
<event>
 5    1  0.1139158E+001  0.2744496E+03  0.7818608E-02  0.1098760E+00
         -1   -1    0    0    0  501 -0.00000000000E+00  0.00000000000E+00  0.17806058240E+02  0.17806058240E+02  0.00000000000E+00 0.  1.
          1   -1    0    0  501    0  0.00000000000E+00 -0.00000000000E+00 -0.10575416766E+04  0.10575416766E+04  0.00000000000E+00 0.  1.
         35    2    1    2    0    0  0.00000000000E+00  0.00000000000E+00 -0.10397356183E+04  0.10753477348E+04  0.27444962150E+03 0.  0.
         25    1    3    3    0    0  0.21016652707E+02  0.62744629706E+02 -0.54813874548E+03  0.56500855971E+03  0.12000000000E+03 0.  0.
         25    1    3    3    0    0 -0.21016652707E+02 -0.62744629706E+02 -0.49159687285E+03  0.51033917510E+03  0.12000000000E+03 0.  0.
<mgrwt>
<rscale>  0 0.27444962E+03</rscale>
<asrwt>0</asrwt>
<pdfrwt beam="1">  1        1 0.16269876E+00 0.27444962E+03</pdfrwt>
<pdfrwt beam="2">  1       -1 0.27393928E-02 0.27444962E+03</pdfrwt>
<totfact> 0.62487897E+03</totfact>
</mgrwt>
</event>
<event>
 5    1  0.1139158E+001  0.2762917E+03  0.7818608E-02  0.1097732E+00
          4   -1    0    0  501    0  0.00000000000E+00  0.00000000000E+00  0.61184645468E+03  0.61184645468E+03  0.00000000000E+00 0.  1.
         -4   -1    0    0    0  501 -0.00000000000E+00 -0.00000000000E+00 -0.31191291770E+02  0.31191291770E+02  0.00000000000E+00 0.  1.
         35    2    1    2    0    0  0.00000000000E+00  0.00000000000E+00  0.58065516291E+03  0.64303774645E+03  0.27629173919E+03 0.  0.
         25    1    3    3    0    0 -0.59032810475E+02 -0.34322590740E+02  0.30108613657E+03  0.33123371595E+03  0.12000000000E+03 0.  0.
         25    1    3    3    0    0  0.59032810475E+02  0.34322590740E+02  0.27956902634E+03  0.31180403050E+03  0.12000000000E+03 0.  0.
<mgrwt>
<rscale>  0 0.27629174E+03</rscale>
<asrwt>0</asrwt>
<pdfrwt beam="1">  1        4 0.94130215E-01 0.27629174E+03</pdfrwt>
<pdfrwt beam="2">  1       -4 0.47986607E-02 0.27629174E+03</pdfrwt>
<totfact> 0.46989721E+02</totfact>
</mgrwt>
</event>
<event>
 5    1  0.1139158E+001  0.2751602E+03  0.7818608E-02  0.1098362E+00
          1   -1    0    0  501    0  0.00000000000E+00  0.00000000000E+00  0.82509082738E+02  0.82509082738E+02  0.00000000000E+00 0. -1.
         -1   -1    0    0    0  501 -0.00000000000E+00 -0.00000000000E+00 -0.22940849414E+03  0.22940849414E+03  0.00000000000E+00 0. -1.
         35    2    1    2    0    0  0.00000000000E+00  0.00000000000E+00 -0.14689941140E+03  0.31191757687E+03  0.27516020369E+03 0.  0.
         25    1    3    3    0    0 -0.29235377597E+02  0.52873487212E+02 -0.10703850102E+03  0.17177762850E+03  0.12000000000E+03 0.  0.
         25    1    3    3    0    0  0.29235377597E+02 -0.52873487212E+02 -0.39860910378E+02  0.14013994837E+03  0.12000000000E+03 0.  0.
<mgrwt>
<rscale>  0 0.27516020E+03</rscale>
<asrwt>0</asrwt>
<pdfrwt beam="1">  1        1 0.12693705E-01 0.27516020E+03</pdfrwt>
<pdfrwt beam="2">  1       -1 0.35293614E-01 0.27516020E+03</pdfrwt>
<totfact> 0.35688770E+03</totfact>
</mgrwt>
</event>
<event>
 5    1  0.1139158E+001  0.2748728E+03  0.7818608E-02  0.1098523E+00
         -2   -1    0    0    0  501 -0.00000000000E+00  0.00000000000E+00  0.14484890148E+02  0.14484890148E+02  0.00000000000E+00 0. -1.
          2   -1    0    0  501    0  0.00000000000E+00 -0.00000000000E+00 -0.13040318460E+04  0.13040318460E+04  0.00000000000E+00 0. -1.
         35    2    1    2    0    0  0.00000000000E+00  0.00000000000E+00 -0.12895469558E+04  0.13185167361E+04  0.27487275630E+03 0.  0.
         25    1    3    3    0    0 -0.47724258199E+02 -0.27942344270E+02 -0.82619109307E+03  0.83668996749E+03  0.12000000000E+03 0.  0.
         25    1    3    3    0    0  0.47724258199E+02  0.27942344270E+02 -0.46335586276E+03  0.48182676864E+03  0.12000000000E+03 0.  0.
<mgrwt>
<rscale>  0 0.27487276E+03</rscale>
<asrwt>0</asrwt>
<pdfrwt beam="1">  1        2 0.20062036E+00 0.27487276E+03</pdfrwt>
<pdfrwt beam="2">  1       -2 0.22284438E-02 0.27487276E+03</pdfrwt>
<totfact> 0.11493610E+04</totfact>
</mgrwt>
</event>
<event>
 5    1  0.1139158E+001  0.2749674E+03  0.7818608E-02  0.1098470E+00
         -1   -1    0    0    0  501 -0.00000000000E+00  0.00000000000E+00  0.64888449912E+02  0.64888449912E+02  0.00000000000E+00 0.  1.
          1   -1    0    0  501    0  0.00000000000E+00 -0.00000000000E+00 -0.29129633427E+03  0.29129633427E+03  0.00000000000E+00 0.  1.
         35    2    1    2    0    0  0.00000000000E+00  0.00000000000E+00 -0.22640788436E+03  0.35618478419E+03  0.27496739877E+03 0.  0.
         25    1    3    3    0    0 -0.23200015604E+02  0.72124140956E+01 -0.19421909708E+03  0.22958945383E+03  0.12000000000E+03 0.  0.
         25    1    3    3    0    0  0.23200015604E+02 -0.72124140956E+01 -0.32188787286E+02  0.12659533036E+03  0.12000000000E+03 0.  0.
<mgrwt>
<rscale>  0 0.27496740E+03</rscale>
<asrwt>0</asrwt>
<pdfrwt beam="1">  1        1 0.44814820E-01 0.27496740E+03</pdfrwt>
<pdfrwt beam="2">  1       -1 0.99828386E-02 0.27496740E+03</pdfrwt>
<totfact> 0.55221797E+03</totfact>
</mgrwt>
</event>
<event>
 5    1  0.1139158E+001  0.2751196E+03  0.7818608E-02  0.1098385E+00
         -2   -1    0    0    0  501 -0.00000000000E+00  0.00000000000E+00  0.16178354612E+03  0.16178354612E+03  0.00000000000E+00 0. -1.
          2   -1    0    0  501    0  0.00000000000E+00 -0.00000000000E+00 -0.11696308288E+03  0.11696308288E+03  0.00000000000E+00 0. -1.
         35    2    1    2    0    0  0.00000000000E+00  0.00000000000E+00  0.44820463236E+02  0.27874662900E+03  0.27511962717E+03 0.  0.
         25    1    3    3    0    0 -0.59473973016E+02 -0.12143067162E+02 -0.69212914134E+01  0.13465701549E+03  0.12000000000E+03 0.  0.
         25    1    3    3    0    0  0.59473973016E+02  0.12143067162E+02  0.51741754649E+02  0.14408961351E+03  0.12000000000E+03 0.  0.
<mgrwt>
<rscale>  0 0.27511963E+03</rscale>
<asrwt>0</asrwt>
<pdfrwt beam="1">  1        2 0.17994320E-01 0.27511963E+03</pdfrwt>
<pdfrwt beam="2">  1       -2 0.24889776E-01 0.27511963E+03</pdfrwt>
<totfact> 0.44718543E+03</totfact>
</mgrwt>
</event>
<event>
 5    1  0.1139158E+001  0.2750190E+03  0.7818608E-02  0.1098441E+00
          2   -1    0    0  501    0  0.00000000000E+00  0.00000000000E+00  0.40203381972E+03  0.40203381972E+03  0.00000000000E+00 0.  1.
         -2   -1    0    0    0  501 -0.00000000000E+00 -0.00000000000E+00 -0.47033007737E+02  0.47033007737E+02  0.00000000000E+00 0.  1.
         35    2    1    2    0    0  0.00000000000E+00  0.00000000000E+00  0.35500081198E+03  0.44906682746E+03  0.27501897937E+03 0.  0.
         25    1    3    3    0    0 -0.61019065557E+02 -0.20337483927E+02  0.14601037001E+03  0.19963959468E+03  0.12000000000E+03 0.  0.
         25    1    3    3    0    0  0.61019065557E+02  0.20337483927E+02  0.20899044197E+03  0.24942723277E+03  0.12000000000E+03 0.  0.
<mgrwt>
<rscale>  0 0.27501898E+03</rscale>
<asrwt>0</asrwt>
<pdfrwt beam="1">  1        2 0.61851355E-01 0.27501898E+03</pdfrwt>
<pdfrwt beam="2">  1       -2 0.72358476E-02 0.27501898E+03</pdfrwt>
<totfact> 0.87268562E+03</totfact>
</mgrwt>
</event>
<event>
 4    1  0.1139158E+001  0.2928479E+03  0.7818608E-02  0.1088872E+00
          2   -1    0    0  501    0  0.00000000000E+00  0.00000000000E+00  0.88513974570E+03  0.88513974570E+03  0.00000000000E+00 0. -1.
         -2   -1    0    0    0  501 -0.00000000000E+00 -0.00000000000E+00 -0.24222132955E+02  0.24222132955E+02  0.00000000000E+00 0. -1.
         25    1    1    2    0    0  0.34751429673E+02  0.73811281628E+02  0.49132503495E+03  0.51230465265E+03  0.12000000000E+03 0.  0.
         25    1    1    2    0    0 -0.34751429673E+02 -0.73811281628E+02  0.36959257780E+03  0.39705722600E+03  0.12000000000E+03 0.  0.
<mgrwt>
<rscale>  0 0.29284790E+03</rscale>
<asrwt>0</asrwt>
<pdfrwt beam="1">  1        2 0.13617532E+00 0.29284790E+03</pdfrwt>
<pdfrwt beam="2">  1       -2 0.37264827E-02 0.29284790E+03</pdfrwt>
<totfact> 0.94996223E+03</totfact>
</mgrwt>
</event>
<event>
 5    1  0.1139158E+001  0.2749271E+03  0.7818608E-02  0.1098492E+00
         -3   -1    0    0    0  501 -0.00000000000E+00  0.00000000000E+00  0.16441583858E+03  0.16441583858E+03  0.00000000000E+00 0.  1.
          3   -1    0    0  501    0  0.00000000000E+00 -0.00000000000E+00 -0.11492949461E+03  0.11492949461E+03  0.00000000000E+00 0.  1.
         35    2    1    2    0    0  0.00000000000E+00  0.00000000000E+00  0.49486343971E+02  0.27934533318E+03  0.27492711203E+03 0.  0.
         25    1    3    3    0    0  0.60355330002E+02  0.29208965620E+02  0.25299418809E+02  0.13977120635E+03  0.12000000000E+03 0.  0.
         25    1    3    3    0    0 -0.60355330002E+02 -0.29208965620E+02  0.24186925162E+02  0.13957412683E+03  0.12000000000E+03 0.  0.
<mgrwt>
<rscale>  0 0.27492711E+03</rscale>
<asrwt>0</asrwt>
<pdfrwt beam="1">  1        3 0.17681461E-01 0.27492711E+03</pdfrwt>
<pdfrwt beam="2">  1       -3 0.25294744E-01 0.27492711E+03</pdfrwt>
<totfact> 0.10430932E+03</totfact>
</mgrwt>
</event>
<event>
 5    1  0.1139158E+001  0.2742194E+03  0.7818608E-02  0.1098889E+00
         -2   -1    0    0    0  501 -0.00000000000E+00  0.00000000000E+00  0.73188278165E+02  0.73188278165E+02  0.00000000000E+00 0.  1.
          2   -1    0    0  501    0  0.00000000000E+00 -0.00000000000E+00 -0.25685905930E+03  0.25685905930E+03  0.00000000000E+00 0.  1.
         35    2    1    2    0    0  0.00000000000E+00  0.00000000000E+00 -0.18367078114E+03  0.33004733747E+03  0.27421941785E+03 0.  0.
         25    1    3    3    0    0  0.56335971837E+02  0.16679663366E+02 -0.12887619353E+03  0.18563681249E+03  0.12000000000E+03 0.  0.
         25    1    3    3    0    0 -0.56335971837E+02 -0.16679663366E+02 -0.54794587606E+02  0.14441052498E+03  0.12000000000E+03 0.  0.
<mgrwt>
<rscale>  0 0.27421942E+03</rscale>
<asrwt>0</asrwt>
<pdfrwt beam="1">  1        2 0.39516779E-01 0.27421942E+03</pdfrwt>
<pdfrwt beam="2">  1       -2 0.11259735E-01 0.27421942E+03</pdfrwt>
<totfact> 0.70431533E+03</totfact>
</mgrwt>
</event>
<event>
 5    1  0.1139158E+001  0.2760897E+03  0.7818608E-02  0.1097844E+00
          2   -1    0    0  501    0  0.00000000000E+00  0.00000000000E+00  0.13463180548E+03  0.13463180548E+03  0.00000000000E+00 0. -1.
         -2   -1    0    0    0  501 -0.00000000000E+00 -0.00000000000E+00 -0.14154443931E+03  0.14154443931E+03  0.00000000000E+00 0. -1.
         35    2    1    2    0    0  0.00000000000E+00  0.00000000000E+00 -0.69126338231E+01  0.27617624479E+03  0.27608972035E+03 0.  0.
         25    1    3    3    0    0  0.55792275461E+02 -0.35894050857E+02 -0.19437009231E+02  0.13848811579E+03  0.12000000000E+03 0.  0.
         25    1    3    3    0    0 -0.55792275461E+02  0.35894050857E+02  0.12524375408E+02  0.13768812900E+03  0.12000000000E+03 0.  0.
<mgrwt>
<rscale>  0 0.27608972E+03</rscale>
<asrwt>0</asrwt>
<pdfrwt beam="1">  1        2 0.20712585E-01 0.27608972E+03</pdfrwt>
<pdfrwt beam="2">  1       -2 0.21776068E-01 0.27608972E+03</pdfrwt>
<totfact> 0.48044392E+03</totfact>
</mgrwt>
</event>
<event>
 5    1  0.1139158E+001  0.2749957E+03  0.7818608E-02  0.1098454E+00
          2   -1    0    0  501    0  0.00000000000E+00  0.00000000000E+00  0.12103174731E+03  0.12103174731E+03  0.00000000000E+00 0.  1.
         -2   -1    0    0    0  501 -0.00000000000E+00 -0.00000000000E+00 -0.15620409953E+03  0.15620409953E+03  0.00000000000E+00 0.  1.
         35    2    1    2    0    0  0.00000000000E+00  0.00000000000E+00 -0.35172352213E+02  0.27723584684E+03  0.27499567344E+03 0.  0.
         25    1    3    3    0    0 -0.33812160474E+02 -0.42166930138E+02 -0.57714231613E+02  0.14370888881E+03  0.12000000000E+03 0.  0.
         25    1    3    3    0    0  0.33812160474E+02  0.42166930138E+02  0.22541879400E+02  0.13352695803E+03  0.12000000000E+03 0.  0.
<mgrwt>
<rscale>  0 0.27499567E+03</rscale>
<asrwt>0</asrwt>
<pdfrwt beam="1">  1        2 0.18620269E-01 0.27499567E+03</pdfrwt>
<pdfrwt beam="2">  1       -2 0.24031400E-01 0.27499567E+03</pdfrwt>
<totfact> 0.45718819E+03</totfact>
</mgrwt>
</event>
<event>
 5    1  0.1139158E+001  0.2753295E+03  0.7818608E-02  0.1098268E+00
         -1   -1    0    0    0  501 -0.00000000000E+00  0.00000000000E+00  0.81094791584E+03  0.81094791584E+03  0.00000000000E+00 0.  1.
          1   -1    0    0  501    0  0.00000000000E+00 -0.00000000000E+00 -0.23369675164E+02  0.23369675164E+02  0.00000000000E+00 0.  1.
         35    2    1    2    0    0  0.00000000000E+00  0.00000000000E+00  0.78757824068E+03  0.83431759100E+03  0.27532954341E+03 0.  0.
         25    1    3    3    0    0  0.15628931629E+02  0.58770668999E+02  0.48230846596E+03  0.50071919413E+03  0.12000000000E+03 0.  0.
         25    1    3    3    0    0 -0.15628931629E+02 -0.58770668999E+02  0.30526977472E+03  0.33359839687E+03  0.12000000000E+03 0.  0.
<mgrwt>
<rscale>  0 0.27532954E+03</rscale>
<asrwt>0</asrwt>
<pdfrwt beam="1">  1        1 0.35953353E-02 0.27532954E+03</pdfrwt>
<pdfrwt beam="2">  1       -1 0.12476120E+00 0.27532954E+03</pdfrwt>
<totfact> 0.15894405E+03</totfact>
</mgrwt>
</event>
<event>
 5    1  0.1139158E+001  0.2756782E+03  0.7818608E-02  0.1098073E+00
          1   -1    0    0  501    0  0.00000000000E+00  0.00000000000E+00  0.10542647025E+03  0.10542647025E+03  0.00000000000E+00 0. -1.
         -1   -1    0    0    0  501 -0.00000000000E+00 -0.00000000000E+00 -0.18021678012E+03  0.18021678012E+03  0.00000000000E+00 0. -1.
         35    2    1    2    0    0  0.00000000000E+00  0.00000000000E+00 -0.74790309867E+02  0.28564325036E+03  0.27567821102E+03 0.  0.
         25    1    3    3    0    0 -0.21258474090E+02 -0.28627114195E+02 -0.97170931809E+02  0.15847278750E+03  0.12000000000E+03 0.  0.
         25    1    3    3    0    0  0.21258474090E+02  0.28627114195E+02  0.22380621942E+02  0.12717046287E+03  0.12000000000E+03 0.  0.
<mgrwt>
<rscale>  0 0.27567821E+03</rscale>
<asrwt>0</asrwt>
<pdfrwt beam="1">  1        1 0.16219457E-01 0.27567821E+03</pdfrwt>
<pdfrwt beam="2">  1       -1 0.27725658E-01 0.27567821E+03</pdfrwt>
<totfact> 0.39070397E+03</totfact>
</mgrwt>
</event>
<event>
 5    1  0.1139158E+001  0.2765139E+03  0.7818608E-02  0.1097608E+00
         -1   -1    0    0    0  501 -0.00000000000E+00  0.00000000000E+00  0.13473509962E+02  0.13473509962E+02  0.00000000000E+00 0. -1.
          1   -1    0    0  501    0  0.00000000000E+00 -0.00000000000E+00 -0.14187081363E+04  0.14187081363E+04  0.00000000000E+00 0. -1.
         35    2    1    2    0    0  0.00000000000E+00  0.00000000000E+00 -0.14052346264E+04  0.14321816463E+04  0.27651385649E+03 0.  0.
         25    1    3    3    0    0 -0.67027728347E+02 -0.14438257563E+02 -0.68337762289E+03  0.69721313465E+03  0.12000000000E+03 0.  0.
         25    1    3    3    0    0  0.67027728347E+02  0.14438257563E+02 -0.72185700348E+03  0.73496851165E+03  0.12000000000E+03 0.  0.
<mgrwt>
<rscale>  0 0.27651386E+03</rscale>
<asrwt>0</asrwt>
<pdfrwt beam="1">  1        1 0.21826269E+00 0.27651386E+03</pdfrwt>
<pdfrwt beam="2">  1       -1 0.20728486E-02 0.27651386E+03</pdfrwt>
<totfact> 0.52760584E+03</totfact>
</mgrwt>
</event>
<event>
 5    1  0.1139158E+001  0.2747097E+03  0.7818608E-02  0.1098614E+00
          2   -1    0    0  501    0  0.00000000000E+00  0.00000000000E+00  0.28354759377E+04  0.28354759377E+04  0.00000000000E+00 0. -1.
         -2   -1    0    0    0  501 -0.00000000000E+00 -0.00000000000E+00 -0.66536838090E+01  0.66536838090E+01  0.00000000000E+00 0. -1.
         35    2    1    2    0    0  0.00000000000E+00  0.00000000000E+00  0.28288222539E+04  0.28421296215E+04  0.27470974018E+03 0.  0.
         25    1    3    3    0    0 -0.48079972096E+02 -0.21331906178E+02  0.98788409863E+03  0.99653485953E+03  0.12000000000E+03 0.  0.
         25    1    3    3    0    0  0.48079972096E+02  0.21331906178E+02  0.18409381552E+04  0.18455947620E+04  0.12000000000E+03 0.  0.
<mgrwt>
<rscale>  0 0.27470974E+03</rscale>
<asrwt>0</asrwt>
<pdfrwt beam="1">  1        2 0.43622610E+00 0.27470974E+03</pdfrwt>
<pdfrwt beam="2">  1       -2 0.10236459E-02 0.27470974E+03</pdfrwt>
<totfact> 0.53577329E+03</totfact>
</mgrwt>
</event>
<event>
 5    1  0.1139158E+001  0.2786746E+03  0.7818608E-02  0.1096415E+00
         -2   -1    0    0    0  501 -0.00000000000E+00  0.00000000000E+00  0.65267223651E+03  0.65267223651E+03  0.00000000000E+00 0. -1.
          2   -1    0    0  501    0  0.00000000000E+00 -0.00000000000E+00 -0.29746754940E+02  0.29746754940E+02  0.00000000000E+00 0. -1.
         35    2    1    2    0    0  0.00000000000E+00  0.00000000000E+00  0.62292548157E+03  0.68241899145E+03  0.27867458496E+03 0.  0.
         25    1    3    3    0    0  0.37370546385E+01  0.11753042255E+02  0.48222666218E+03  0.49708616285E+03  0.12000000000E+03 0.  0.
         25    1    3    3    0    0 -0.37370546385E+01 -0.11753042255E+02  0.14069881940E+03  0.18533282861E+03  0.12000000000E+03 0.  0.
<mgrwt>
<rscale>  0 0.27867458E+03</rscale>
<asrwt>0</asrwt>
<pdfrwt beam="1">  1        2 0.45764243E-02 0.27867458E+03</pdfrwt>
<pdfrwt beam="2">  1       -2 0.10041110E+00 0.27867458E+03</pdfrwt>
<totfact> 0.15022860E+03</totfact>
</mgrwt>
</event>
<event>
 5    1  0.1139158E+001  0.2741814E+03  0.7818608E-02  0.1098910E+00
         -2   -1    0    0    0  501 -0.00000000000E+00  0.00000000000E+00  0.24385030477E+02  0.24385030477E+02  0.00000000000E+00 0.  1.
          2   -1    0    0  501    0  0.00000000000E+00 -0.00000000000E+00 -0.77071277129E+03  0.77071277129E+03  0.00000000000E+00 0.  1.
         35    2    1    2    0    0  0.00000000000E+00  0.00000000000E+00 -0.74632774082E+03  0.79509780177E+03  0.27418135908E+03 0.  0.
         25    1    3    3    0    0 -0.21668544420E+02 -0.51817550413E+02 -0.47524973429E+03  0.49337297686E+03  0.12000000000E+03 0.  0.
         25    1    3    3    0    0  0.21668544420E+02  0.51817550413E+02 -0.27107800652E+03  0.30172482491E+03  0.12000000000E+03 0.  0.
<mgrwt>
<rscale>  0 0.27418136E+03</rscale>
<asrwt>0</asrwt>
<pdfrwt beam="1">  1        2 0.11857120E+00 0.27418136E+03</pdfrwt>
<pdfrwt beam="2">  1       -2 0.37515430E-02 0.27418136E+03</pdfrwt>
<totfact> 0.11222709E+04</totfact>
</mgrwt>
</event>
<event>
 5    1  0.1139158E+001  0.2748956E+03  0.7818608E-02  0.1098510E+00
          1   -1    0    0  501    0  0.00000000000E+00  0.00000000000E+00  0.71050569805E+02  0.71050569805E+02  0.00000000000E+00 0. -1.
         -1   -1    0    0    0  501 -0.00000000000E+00 -0.00000000000E+00 -0.26589369655E+03  0.26589369655E+03  0.00000000000E+00 0. -1.
         35    2    1    2    0    0  0.00000000000E+00  0.00000000000E+00 -0.19484312674E+03  0.33694426635E+03  0.27489560671E+03 0.  0.
         25    1    3    3    0    0  0.30099642765E+02 -0.57393665206E+02 -0.76480898507E+02  0.15636287647E+03  0.12000000000E+03 0.  0.
         25    1    3    3    0    0 -0.30099642765E+02  0.57393665206E+02 -0.11836222824E+03  0.18058138989E+03  0.12000000000E+03 0.  0.
<mgrwt>
<rscale>  0 0.27489561E+03</rscale>
<asrwt>0</asrwt>
<pdfrwt beam="1">  1        1 0.10930857E-01 0.27489561E+03</pdfrwt>
<pdfrwt beam="2">  1       -1 0.40906722E-01 0.27489561E+03</pdfrwt>
<totfact> 0.33585709E+03</totfact>
</mgrwt>
</event>
<event>
 5    1  0.1139158E+001  0.2735652E+03  0.7818608E-02  0.1099256E+00
         -2   -1    0    0    0  501 -0.00000000000E+00  0.00000000000E+00  0.24009004969E+02  0.24009004969E+02  0.00000000000E+00 0. -1.
          2   -1    0    0  501    0  0.00000000000E+00 -0.00000000000E+00 -0.77926911325E+03  0.77926911325E+03  0.00000000000E+00 0. -1.
         35    2    1    2    0    0  0.00000000000E+00  0.00000000000E+00 -0.75526010828E+03  0.80327811822E+03  0.27356517331E+03 0.  0.
         25    1    3    3    0    0  0.41587607852E+02  0.37215698143E+02 -0.47913283519E+03  0.49707425106E+03  0.12000000000E+03 0.  0.
         25    1    3    3    0    0 -0.41587607852E+02 -0.37215698143E+02 -0.27612727310E+03  0.30620386716E+03  0.12000000000E+03 0.  0.
<mgrwt>
<rscale>  0 0.27356517E+03</rscale>
<asrwt>0</asrwt>
<pdfrwt beam="1">  1        2 0.11988755E+00 0.27356517E+03</pdfrwt>
<pdfrwt beam="2">  1       -2 0.36936931E-02 0.27356517E+03</pdfrwt>
<totfact> 0.11328071E+04</totfact>
</mgrwt>
</event>
<event>
 5    1  0.1139158E+001  0.2750902E+03  0.7818608E-02  0.1098401E+00
         -1   -1    0    0    0  501 -0.00000000000E+00  0.00000000000E+00  0.38374607859E+03  0.38374607859E+03  0.00000000000E+00 0. -1.
          1   -1    0    0  501    0  0.00000000000E+00 -0.00000000000E+00 -0.49299928394E+02  0.49299928394E+02  0.00000000000E+00 0. -1.
         35    2    1    2    0    0  0.00000000000E+00  0.00000000000E+00  0.33444615020E+03  0.43304600699E+03  0.27509019754E+03 0.  0.
         25    1    3    3    0    0 -0.28777842010E+02  0.30340447162E+01  0.26273522460E+03  0.29028807737E+03  0.12000000000E+03 0.  0.
         25    1    3    3    0    0  0.28777842010E+02 -0.30340447162E+01  0.71710925602E+02  0.14275792962E+03  0.12000000000E+03 0.  0.
<mgrwt>
<rscale>  0 0.27509020E+03</rscale>
<asrwt>0</asrwt>
<pdfrwt beam="1">  1        1 0.75846046E-02 0.27509020E+03</pdfrwt>
<pdfrwt beam="2">  1       -1 0.59037856E-01 0.27509020E+03</pdfrwt>
<totfact> 0.27962611E+03</totfact>
</mgrwt>
</event>
<event>
 5    1  0.1139158E+001  0.2749972E+03  0.7818608E-02  0.1098453E+00
         -2   -1    0    0    0  501 -0.00000000000E+00  0.00000000000E+00  0.12322204966E+02  0.12322204966E+02  0.00000000000E+00 0.  1.
          2   -1    0    0  501    0  0.00000000000E+00 -0.00000000000E+00 -0.15342928593E+04  0.15342928593E+04  0.00000000000E+00 0.  1.
         35    2    1    2    0    0  0.00000000000E+00  0.00000000000E+00 -0.15219706543E+04  0.15466150643E+04  0.27499724428E+03 0.  0.
         25    1    3    3    0    0  0.25959789625E+02 -0.53028126919E+02 -0.94060311036E+03  0.95006321060E+03  0.12000000000E+03 0.  0.
         25    1    3    3    0    0 -0.25959789625E+02  0.53028126919E+02 -0.58136754396E+03  0.59655185365E+03  0.12000000000E+03 0.  0.
<mgrwt>
<rscale>  0 0.27499724E+03</rscale>
<asrwt>0</asrwt>
<pdfrwt beam="1">  1        2 0.23604481E+00 0.27499724E+03</pdfrwt>
<pdfrwt beam="2">  1       -2 0.18957258E-02 0.27499724E+03</pdfrwt>
<totfact> 0.10941007E+04</totfact>
</mgrwt>
</event>
<event>
 5    1  0.1139158E+001  0.2757175E+03  0.7818608E-02  0.1098051E+00
          2   -1    0    0  501    0  0.00000000000E+00  0.00000000000E+00  0.68151984238E+03  0.68151984238E+03  0.00000000000E+00 0. -1.
         -2   -1    0    0    0  501 -0.00000000000E+00 -0.00000000000E+00 -0.27886263161E+02  0.27886263161E+02  0.00000000000E+00 0. -1.
         35    2    1    2    0    0  0.00000000000E+00  0.00000000000E+00  0.65363357922E+03  0.70940610554E+03  0.27571754876E+03 0.  0.
         25    1    3    3    0    0  0.43193571645E+02  0.27097747142E+02  0.44202811952E+03  0.46085662736E+03  0.12000000000E+03 0.  0.
         25    1    3    3    0    0 -0.43193571645E+02 -0.27097747142E+02  0.21160545970E+03  0.24854947819E+03  0.12000000000E+03 0.  0.
<mgrwt>
<rscale>  0 0.27571755E+03</rscale>
<asrwt>0</asrwt>
<pdfrwt beam="1">  1        2 0.10484919E+00 0.27571755E+03</pdfrwt>
<pdfrwt beam="2">  1       -2 0.42901949E-02 0.27571755E+03</pdfrwt>
<totfact> 0.10668876E+04</totfact>
</mgrwt>
</event>
<event>
 5    1  0.1139158E+001  0.2753424E+03  0.7818608E-02  0.1098260E+00
          1   -1    0    0  501    0  0.00000000000E+00  0.00000000000E+00  0.94233328411E+02  0.94233328411E+02  0.00000000000E+00 0.  1.
         -1   -1    0    0    0  501 -0.00000000000E+00 -0.00000000000E+00 -0.20113227103E+03  0.20113227103E+03  0.00000000000E+00 0.  1.
         35    2    1    2    0    0  0.00000000000E+00  0.00000000000E+00 -0.10689894262E+03  0.29536559945E+03  0.27534242935E+03 0.  0.
         25    1    3    3    0    0  0.30053354939E+02  0.60364139069E+02 -0.56148366055E+02  0.14865958576E+03  0.12000000000E+03 0.  0.
         25    1    3    3    0    0 -0.30053354939E+02 -0.60364139069E+02 -0.50750576568E+02  0.14670601368E+03  0.12000000000E+03 0.  0.
<mgrwt>
<rscale>  0 0.27534243E+03</rscale>
<asrwt>0</asrwt>
<pdfrwt beam="1">  1        1 0.14497435E-01 0.27534243E+03</pdfrwt>
<pdfrwt beam="2">  1       -1 0.30943426E-01 0.27534243E+03</pdfrwt>
<totfact> 0.37568821E+03</totfact>
</mgrwt>
</event>
<event>
 5    1  0.1139158E+001  0.2755425E+03  0.7818608E-02  0.1098149E+00
         -2   -1    0    0    0  501 -0.00000000000E+00  0.00000000000E+00  0.99417893863E+01  0.99417893863E+01  0.00000000000E+00 0.  1.
          2   -1    0    0  501    0  0.00000000000E+00 -0.00000000000E+00 -0.19092052552E+04  0.19092052552E+04  0.00000000000E+00 0.  1.
         35    2    1    2    0    0  0.00000000000E+00  0.00000000000E+00 -0.18992634658E+04  0.19191470446E+04  0.27554249431E+03 0.  0.
         25    1    3    3    0    0  0.21546869922E+02 -0.44452352039E+02 -0.12718804627E+04  0.12784835512E+04  0.12000000000E+03 0.  0.
         25    1    3    3    0    0 -0.21546869922E+02  0.44452352039E+02 -0.62738300312E+03  0.64066349343E+03  0.12000000000E+03 0.  0.
<mgrwt>
<rscale>  0 0.27554249E+03</rscale>
<asrwt>0</asrwt>
<pdfrwt beam="1">  1        2 0.29372362E+00 0.27554249E+03</pdfrwt>
<pdfrwt beam="2">  1       -2 0.15295074E-02 0.27554249E+03</pdfrwt>
<totfact> 0.95088818E+03</totfact>
</mgrwt>
</event>
<event>
 5    1  0.1139158E+001  0.2749404E+03  0.7818608E-02  0.1098485E+00
         -2   -1    0    0    0  501 -0.00000000000E+00  0.00000000000E+00  0.74651524984E+01  0.74651524984E+01  0.00000000000E+00 0.  1.
          2   -1    0    0  501    0  0.00000000000E+00 -0.00000000000E+00 -0.25315038819E+04  0.25315038819E+04  0.00000000000E+00 0.  1.
         35    2    1    2    0    0  0.00000000000E+00  0.00000000000E+00 -0.25240387294E+04  0.25389690344E+04  0.27494044831E+03 0.  0.
         25    1    3    3    0    0 -0.47473258640E+02 -0.38730677637E+02 -0.15139546174E+04  0.15199382748E+04  0.12000000000E+03 0.  0.
         25    1    3    3    0    0  0.47473258640E+02  0.38730677637E+02 -0.10100841120E+04  0.10190307596E+04  0.12000000000E+03 0.  0.
<mgrwt>
<rscale>  0 0.27494045E+03</rscale>
<asrwt>0</asrwt>
<pdfrwt beam="1">  1        2 0.38946206E+00 0.27494045E+03</pdfrwt>
<pdfrwt beam="2">  1       -2 0.11484852E-02 0.27494045E+03</pdfrwt>
<totfact> 0.67171074E+03</totfact>
</mgrwt>
</event>
<event>
 5    1  0.1139158E+001  0.2751832E+03  0.7818608E-02  0.1098349E+00
          1   -1    0    0  501    0  0.00000000000E+00  0.00000000000E+00  0.49442080188E+04  0.49442080188E+04  0.00000000000E+00 0. -1.
         -1   -1    0    0    0  501 -0.00000000000E+00 -0.00000000000E+00 -0.38290147388E+01  0.38290147388E+01  0.00000000000E+00 0. -1.
         35    2    1    2    0    0  0.00000000000E+00  0.00000000000E+00  0.49403790041E+04  0.49480370335E+04  0.27518317809E+03 0.  0.
         25    1    3    3    0    0 -0.19601708242E+02  0.59352174745E+02  0.20208336407E+04  0.20253581191E+04  0.12000000000E+03 0.  0.
         25    1    3    3    0    0  0.19601708242E+02 -0.59352174745E+02  0.29195453634E+04  0.29226789144E+04  0.12000000000E+03 0.  0.
<mgrwt>
<rscale>  0 0.27518318E+03</rscale>
<asrwt>0</asrwt>
<pdfrwt beam="1">  1        1 0.76064228E+00 0.27518318E+03</pdfrwt>
<pdfrwt beam="2">  1       -1 0.58908315E-03 0.27518318E+03</pdfrwt>
<totfact> 0.59295485E+01</totfact>
</mgrwt>
</event>
<event>
 5    1  0.1139158E+001  0.2748454E+03  0.7818608E-02  0.1098538E+00
         -2   -1    0    0    0  501 -0.00000000000E+00  0.00000000000E+00  0.12525120887E+02  0.12525120887E+02  0.00000000000E+00 0. -1.
          2   -1    0    0  501    0  0.00000000000E+00 -0.00000000000E+00 -0.15077697610E+04  0.15077697610E+04  0.00000000000E+00 0. -1.
         35    2    1    2    0    0  0.00000000000E+00  0.00000000000E+00 -0.14952446401E+04  0.15202948819E+04  0.27484540038E+03 0.  0.
         25    1    3    3    0    0 -0.14099609160E+01 -0.60109166523E+02 -0.58447735121E+03  0.59969064856E+03  0.12000000000E+03 0.  0.
         25    1    3    3    0    0  0.14099609160E+01  0.60109166523E+02 -0.91076728893E+03  0.92060423336E+03  0.12000000000E+03 0.  0.
<mgrwt>
<rscale>  0 0.27484540E+03</rscale>
<asrwt>0</asrwt>
<pdfrwt beam="1">  1        2 0.23196448E+00 0.27484540E+03</pdfrwt>
<pdfrwt beam="2">  1       -2 0.19269425E-02 0.27484540E+03</pdfrwt>
<totfact> 0.11035443E+04</totfact>
</mgrwt>
</event>
<event>
 5    1  0.1139158E+001  0.2757236E+03  0.7818608E-02  0.1098048E+00
          2   -1    0    0  501    0  0.00000000000E+00  0.00000000000E+00  0.63021557271E+03  0.63021557271E+03  0.00000000000E+00 0. -1.
         -2   -1    0    0    0  501 -0.00000000000E+00 -0.00000000000E+00 -0.30157744199E+02  0.30157744199E+02  0.00000000000E+00 0. -1.
         35    2    1    2    0    0  0.00000000000E+00  0.00000000000E+00  0.60005782851E+03  0.66037331691E+03  0.27572362998E+03 0.  0.
         25    1    3    3    0    0  0.30499206534E+02  0.29320434494E+02  0.42712469291E+03  0.44567408806E+03  0.12000000000E+03 0.  0.
         25    1    3    3    0    0 -0.30499206534E+02 -0.29320434494E+02  0.17293313561E+03  0.21469922885E+03  0.12000000000E+03 0.  0.
<mgrwt>
<rscale>  0 0.27572363E+03</rscale>
<asrwt>0</asrwt>
<pdfrwt beam="1">  1        2 0.96956232E-01 0.27572363E+03</pdfrwt>
<pdfrwt beam="2">  1       -2 0.46396534E-02 0.27572363E+03</pdfrwt>
<totfact> 0.10402727E+04</totfact>
</mgrwt>
</event>
<event>
 5    1  0.1139158E+001  0.2736836E+03  0.7818608E-02  0.1099190E+00
         -2   -1    0    0    0  501 -0.00000000000E+00  0.00000000000E+00  0.22701228205E+02  0.22701228205E+02  0.00000000000E+00 0. -1.
          2   -1    0    0  501    0  0.00000000000E+00 -0.00000000000E+00 -0.82487490418E+03  0.82487490418E+03  0.00000000000E+00 0. -1.
         35    2    1    2    0    0  0.00000000000E+00  0.00000000000E+00 -0.80217367597E+03  0.84757613238E+03  0.27368356502E+03 0.  0.
         25    1    3    3    0    0 -0.28736532105E+02 -0.54060357387E+02 -0.47550080294E+03  0.49421586793E+03  0.12000000000E+03 0.  0.
         25    1    3    3    0    0  0.28736532105E+02  0.54060357387E+02 -0.32667287303E+03  0.35336026445E+03  0.12000000000E+03 0.  0.
<mgrwt>
<rscale>  0 0.27368357E+03</rscale>
<asrwt>0</asrwt>
<pdfrwt beam="1">  1        2 0.12690382E+00 0.27368357E+03</pdfrwt>
<pdfrwt beam="2">  1       -2 0.34924971E-02 0.27368357E+03</pdfrwt>
<totfact> 0.11458445E+04</totfact>
</mgrwt>
</event>
<event>
 5    1  0.1139158E+001  0.2701836E+03  0.7818608E-02  0.1101175E+00
          1   -1    0    0  501    0  0.00000000000E+00  0.00000000000E+00  0.24434859943E+02  0.24434859943E+02  0.00000000000E+00 0. -1.
         -1   -1    0    0    0  501 -0.00000000000E+00 -0.00000000000E+00 -0.74687544379E+03  0.74687544379E+03  0.00000000000E+00 0. -1.
         35    2    1    2    0    0  0.00000000000E+00  0.00000000000E+00 -0.72244058385E+03  0.77131030374E+03  0.27018361804E+03 0.  0.
         25    1    3    3    0    0  0.44671630208E+02 -0.41444648639E+02 -0.39458360016E+03  0.41690458256E+03  0.12000000000E+03 0.  0.
         25    1    3    3    0    0 -0.44671630208E+02  0.41444648639E+02 -0.32785698369E+03  0.35440572117E+03  0.12000000000E+03 0.  0.
<mgrwt>
<rscale>  0 0.27018362E+03</rscale>
<asrwt>0</asrwt>
<pdfrwt beam="1">  1        1 0.37592095E-02 0.27018362E+03</pdfrwt>
<pdfrwt beam="2">  1       -1 0.11490391E+00 0.27018362E+03</pdfrwt>
<totfact> 0.18159390E+03</totfact>
</mgrwt>
</event>
<event>
 5    1  0.1139158E+001  0.2725605E+03  0.7818608E-02  0.1099823E+00
          1   -1    0    0  501    0  0.00000000000E+00  0.00000000000E+00  0.31145609517E+04  0.31145609517E+04  0.00000000000E+00 0.  1.
         -1   -1    0    0    0  501 -0.00000000000E+00 -0.00000000000E+00 -0.59630579178E+01  0.59630579178E+01  0.00000000000E+00 0.  1.
         35    2    1    2    0    0  0.00000000000E+00  0.00000000000E+00  0.31085978938E+04  0.31205240096E+04  0.27256050589E+03 0.  0.
         25    1    3    3    0    0  0.13857400037E+02  0.62825760408E+02  0.16202706094E+04  0.16259815348E+04  0.12000000000E+03 0.  0.
         25    1    3    3    0    0 -0.13857400037E+02 -0.62825760408E+02  0.14883272844E+04  0.14945424748E+04  0.12000000000E+03 0.  0.
<mgrwt>
<rscale>  0 0.27256051E+03</rscale>
<asrwt>0</asrwt>
<pdfrwt beam="1">  1        1 0.47916192E+00 0.27256051E+03</pdfrwt>
<pdfrwt beam="2">  1       -1 0.91739601E-03 0.27256051E+03</pdfrwt>
<totfact> 0.12808290E+03</totfact>
</mgrwt>
</event>
<event>
 5    1  0.1139158E+001  0.2752100E+03  0.7818608E-02  0.1098334E+00
          2   -1    0    0  501    0  0.00000000000E+00  0.00000000000E+00  0.22424519111E+04  0.22424519111E+04  0.00000000000E+00 0.  1.
         -2   -1    0    0    0  501 -0.00000000000E+00 -0.00000000000E+00 -0.84439433944E+01  0.84439433944E+01  0.00000000000E+00 0.  1.
         35    2    1    2    0    0  0.00000000000E+00  0.00000000000E+00  0.22340079677E+04  0.22508958545E+04  0.27521000710E+03 0.  0.
         25    1    3    3    0    0  0.28897028481E+02 -0.59776687590E+02  0.10248890174E+04  0.10340240755E+04  0.12000000000E+03 0.  0.
         25    1    3    3    0    0 -0.28897028481E+02  0.59776687590E+02  0.12091189503E+04  0.12168717790E+04  0.12000000000E+03 0.  0.
<mgrwt>
<rscale>  0 0.27521001E+03</rscale>
<asrwt>0</asrwt>
<pdfrwt beam="1">  1        2 0.34499213E+00 0.27521001E+03</pdfrwt>
<pdfrwt beam="2">  1       -2 0.12990700E-02 0.27521001E+03</pdfrwt>
<totfact> 0.80477967E+03</totfact>
</mgrwt>
</event>
<event>
 5    1  0.1139158E+001  0.2745446E+03  0.7818608E-02  0.1098706E+00
         -2   -1    0    0    0  501 -0.00000000000E+00  0.00000000000E+00  0.31959890337E+02  0.31959890337E+02  0.00000000000E+00 0. -1.
          2   -1    0    0  501    0  0.00000000000E+00 -0.00000000000E+00 -0.58960432158E+03  0.58960432158E+03  0.00000000000E+00 0. -1.
         35    2    1    2    0    0  0.00000000000E+00  0.00000000000E+00 -0.55764443124E+03  0.62156421192E+03  0.27454463724E+03 0.  0.
         25    1    3    3    0    0  0.12029926186E+02 -0.20570058176E+02 -0.13787512145E+03  0.18432958398E+03  0.12000000000E+03 0.  0.
         25    1    3    3    0    0 -0.12029926186E+02  0.20570058176E+02 -0.41976930979E+03  0.43723462793E+03  0.12000000000E+03 0.  0.
<mgrwt>
<rscale>  0 0.27454464E+03</rscale>
<asrwt>0</asrwt>
<pdfrwt beam="1">  1        2 0.90708355E-01 0.27454464E+03</pdfrwt>
<pdfrwt beam="2">  1       -2 0.49169063E-02 0.27454464E+03</pdfrwt>
<totfact> 0.10294265E+04</totfact>
</mgrwt>
</event>
<event>
 5    1  0.1139158E+001  0.2747231E+03  0.7818608E-02  0.1098606E+00
         -2   -1    0    0    0  501 -0.00000000000E+00  0.00000000000E+00  0.22440678969E+04  0.22440678969E+04  0.00000000000E+00 0. -1.
          2   -1    0    0  501    0  0.00000000000E+00 -0.00000000000E+00 -0.84080322792E+01  0.84080322792E+01  0.00000000000E+00 0. -1.
         35    2    1    2    0    0  0.00000000000E+00  0.00000000000E+00  0.22356598646E+04  0.22524759291E+04  0.27472309924E+03 0.  0.
         25    1    3    3    0    0  0.18531623160E+02 -0.31527525792E+02  0.15765966537E+04  0.15815797211E+04  0.12000000000E+03 0.  0.
         25    1    3    3    0    0 -0.18531623160E+02  0.31527525792E+02  0.65906321091E+03  0.67089620801E+03  0.12000000000E+03 0.  0.
<mgrwt>
<rscale>  0 0.27472310E+03</rscale>
<asrwt>0</asrwt>
<pdfrwt beam="1">  1        2 0.12935452E-02 0.27472310E+03</pdfrwt>
<pdfrwt beam="2">  1       -2 0.34524074E+00 0.27472310E+03</pdfrwt>
<totfact> 0.19833926E+02</totfact>
</mgrwt>
</event>
<event>
 5    1  0.1139158E+001  0.2743604E+03  0.7818608E-02  0.1098810E+00
         -2   -1    0    0    0  501 -0.00000000000E+00  0.00000000000E+00  0.33681626475E+02  0.33681626475E+02  0.00000000000E+00 0. -1.
          2   -1    0    0  501    0  0.00000000000E+00 -0.00000000000E+00 -0.55871416843E+03  0.55871416843E+03  0.00000000000E+00 0. -1.
         35    2    1    2    0    0  0.00000000000E+00  0.00000000000E+00 -0.52503254195E+03  0.59239579490E+03  0.27436036104E+03 0.  0.
         25    1    3    3    0    0 -0.65394339484E+02 -0.42090725832E+00 -0.28822831300E+03  0.31898613953E+03  0.12000000000E+03 0.  0.
         25    1    3    3    0    0  0.65394339484E+02  0.42090725832E+00 -0.23680422895E+03  0.27340965537E+03  0.12000000000E+03 0.  0.
<mgrwt>
<rscale>  0 0.27436036E+03</rscale>
<asrwt>0</asrwt>
<pdfrwt beam="1">  1        2 0.85956026E-01 0.27436036E+03</pdfrwt>
<pdfrwt beam="2">  1       -2 0.51817887E-02 0.27436036E+03</pdfrwt>
<totfact> 0.10111129E+04</totfact>
</mgrwt>
</event>
<event>
 5    1  0.1139158E+001  0.2746747E+03  0.7818608E-02  0.1098634E+00
         -1   -1    0    0    0  501 -0.00000000000E+00  0.00000000000E+00  0.14863221100E+02  0.14863221100E+02  0.00000000000E+00 0. -1.
          1   -1    0    0  501    0  0.00000000000E+00 -0.00000000000E+00 -0.12690083033E+04  0.12690083033E+04  0.00000000000E+00 0. -1.
         35    2    1    2    0    0  0.00000000000E+00  0.00000000000E+00 -0.12541450822E+04  0.12838715244E+04  0.27467472391E+03 0.  0.
         25    1    3    3    0    0 -0.50145375071E+02 -0.40967861103E+02 -0.55046395231E+03  0.56710094963E+03  0.12000000000E+03 0.  0.
         25    1    3    3    0    0  0.50145375071E+02  0.40967861103E+02 -0.70368112987E+03  0.71677057475E+03  0.12000000000E+03 0.  0.
<mgrwt>
<rscale>  0 0.27467472E+03</rscale>
<asrwt>0</asrwt>
<pdfrwt beam="1">  1        1 0.19523206E+00 0.27467472E+03</pdfrwt>
<pdfrwt beam="2">  1       -1 0.22866493E-02 0.27467472E+03</pdfrwt>
<totfact> 0.57727486E+03</totfact>
</mgrwt>
</event>
<event>
 5    1  0.1139158E+001  0.2775343E+03  0.7818608E-02  0.1097043E+00
         -2   -1    0    0    0  501 -0.00000000000E+00  0.00000000000E+00  0.99897640756E+01  0.99897640756E+01  0.00000000000E+00 0. -1.
          2   -1    0    0  501    0  0.00000000000E+00 -0.00000000000E+00 -0.19276056835E+04  0.19276056835E+04  0.00000000000E+00 0. -1.
         35    2    1    2    0    0  0.00000000000E+00  0.00000000000E+00 -0.19176159195E+04  0.19375954476E+04  0.27753432948E+03 0.  0.
         25    1    3    3    0    0 -0.25315255919E+02 -0.58822863478E+02 -0.11506819347E+04  0.11586931890E+04  0.12000000000E+03 0.  0.
         25    1    3    3    0    0  0.25315255919E+02  0.58822863478E+02 -0.76693398479E+03  0.77890225861E+03  0.12000000000E+03 0.  0.
<mgrwt>
<rscale>  0 0.27753433E+03</rscale>
<asrwt>0</asrwt>
<pdfrwt beam="1">  1        2 0.29655488E+00 0.27753433E+03</pdfrwt>
<pdfrwt beam="2">  1       -2 0.15368859E-02 0.27753433E+03</pdfrwt>
<totfact> 0.92350454E+03</totfact>
</mgrwt>
</event>
<event>
 5    1  0.1139158E+001  0.2745972E+03  0.7818608E-02  0.1098677E+00
          1   -1    0    0  501    0  0.00000000000E+00  0.00000000000E+00  0.21153482920E+03  0.21153482920E+03  0.00000000000E+00 0.  1.
         -1   -1    0    0    0  501 -0.00000000000E+00 -0.00000000000E+00 -0.89114883077E+02  0.89114883077E+02  0.00000000000E+00 0.  1.
         35    2    1    2    0    0  0.00000000000E+00  0.00000000000E+00  0.12241994612E+03  0.30064971227E+03  0.27459717093E+03 0.  0.
         25    1    3    3    0    0 -0.33847398500E+02 -0.75439540147E+01 -0.11916287112E+01  0.12491588212E+03  0.12000000000E+03 0.  0.
         25    1    3    3    0    0  0.33847398500E+02  0.75439540147E+01  0.12361157483E+03  0.17573383015E+03  0.12000000000E+03 0.  0.
<mgrwt>
<rscale>  0 0.27459717E+03</rscale>
<asrwt>0</asrwt>
<pdfrwt beam="1">  1        1 0.32543820E-01 0.27459717E+03</pdfrwt>
<pdfrwt beam="2">  1       -1 0.13709982E-01 0.27459717E+03</pdfrwt>
<totfact> 0.50310151E+03</totfact>
</mgrwt>
</event>
<event>
 5    1  0.1139158E+001  0.2746177E+03  0.7818608E-02  0.1098666E+00
         -4   -1    0    0    0  501 -0.00000000000E+00  0.00000000000E+00  0.11251173261E+03  0.11251173261E+03  0.00000000000E+00 0. -1.
          4   -1    0    0  501    0  0.00000000000E+00 -0.00000000000E+00 -0.16757111013E+03  0.16757111013E+03  0.00000000000E+00 0. -1.
         35    2    1    2    0    0  0.00000000000E+00  0.00000000000E+00 -0.55059377519E+02  0.28008284274E+03  0.27461766831E+03 0.  0.
         25    1    3    3    0    0 -0.27060918854E+02 -0.60950616483E+02 -0.30118903510E+02  0.14055041561E+03  0.12000000000E+03 0.  0.
         25    1    3    3    0    0  0.27060918854E+02  0.60950616483E+02 -0.24940474009E+02  0.13953242714E+03  0.12000000000E+03 0.  0.
<mgrwt>
<rscale>  0 0.27461767E+03</rscale>
<asrwt>0</asrwt>
<pdfrwt beam="1">  1        4 0.25780171E-01 0.27461767E+03</pdfrwt>
<pdfrwt beam="2">  1       -4 0.17309497E-01 0.27461767E+03</pdfrwt>
<totfact> 0.77600808E+02</totfact>
</mgrwt>
</event>
<event>
 5    1  0.1139158E+001  0.2761511E+03  0.7818608E-02  0.1097810E+00
          1   -1    0    0  501    0  0.00000000000E+00  0.00000000000E+00  0.10216616750E+04  0.10216616750E+04  0.00000000000E+00 0. -1.
         -1   -1    0    0    0  501 -0.00000000000E+00 -0.00000000000E+00 -0.18660640579E+02  0.18660640579E+02  0.00000000000E+00 0. -1.
         35    2    1    2    0    0  0.00000000000E+00  0.00000000000E+00  0.10030010344E+04  0.10403223156E+04  0.27615112754E+03 0.  0.
         25    1    3    3    0    0 -0.17208680590E+01  0.47279644697E+02  0.31592768995E+03  0.34124570542E+03  0.12000000000E+03 0.  0.
         25    1    3    3    0    0  0.17208680590E+01 -0.47279644697E+02  0.68707334448E+03  0.69907661016E+03  0.12000000000E+03 0.  0.
<mgrwt>
<rscale>  0 0.27615113E+03</rscale>
<asrwt>0</asrwt>
<pdfrwt beam="1">  1        1 0.15717868E+00 0.27615113E+03</pdfrwt>
<pdfrwt beam="2">  1       -1 0.28708686E-02 0.27615113E+03</pdfrwt>
<totfact> 0.61986431E+03</totfact>
</mgrwt>
</event>
<event>
 5    1  0.1139158E+001  0.2746452E+03  0.7818608E-02  0.1098650E+00
          1   -1    0    0  501    0  0.00000000000E+00  0.00000000000E+00  0.11900329633E+03  0.11900329633E+03  0.00000000000E+00 0. -1.
         -1   -1    0    0    0  501 -0.00000000000E+00 -0.00000000000E+00 -0.15846194746E+03  0.15846194746E+03  0.00000000000E+00 0. -1.
         35    2    1    2    0    0  0.00000000000E+00  0.00000000000E+00 -0.39458651137E+02  0.27746524379E+03  0.27464518267E+03 0.  0.
         25    1    3    3    0    0 -0.10316031529E+02  0.60497841341E+02 -0.46287747564E+02  0.14250952560E+03  0.12000000000E+03 0.  0.
         25    1    3    3    0    0  0.10316031529E+02 -0.60497841341E+02  0.68290964267E+01  0.13495571819E+03  0.12000000000E+03 0.  0.
<mgrwt>
<rscale>  0 0.27464518E+03</rscale>
<asrwt>0</asrwt>
<pdfrwt beam="1">  1        1 0.18308199E-01 0.27464518E+03</pdfrwt>
<pdfrwt beam="2">  1       -1 0.24378761E-01 0.27464518E+03</pdfrwt>
<totfact> 0.41373222E+03</totfact>
</mgrwt>
</event>
<event>
 5    1  0.1139158E+001  0.2751014E+03  0.7818608E-02  0.1098395E+00
         -1   -1    0    0    0  501 -0.00000000000E+00  0.00000000000E+00  0.32283915485E+02  0.32283915485E+02  0.00000000000E+00 0. -1.
          1   -1    0    0  501    0  0.00000000000E+00 -0.00000000000E+00 -0.58605629778E+03  0.58605629778E+03  0.00000000000E+00 0. -1.
         35    2    1    2    0    0  0.00000000000E+00  0.00000000000E+00 -0.55377238230E+03  0.61834021327E+03  0.27510137758E+03 0.  0.
         25    1    3    3    0    0 -0.26874636648E+02  0.40521992083E+02 -0.38125012663E+03  0.40263623407E+03  0.12000000000E+03 0.  0.
         25    1    3    3    0    0  0.26874636648E+02 -0.40521992083E+02 -0.17252225567E+03  0.21570397919E+03  0.12000000000E+03 0.  0.
<mgrwt>
<rscale>  0 0.27510138E+03</rscale>
<asrwt>0</asrwt>
<pdfrwt beam="1">  1        1 0.90162511E-01 0.27510138E+03</pdfrwt>
<pdfrwt beam="2">  1       -1 0.49667560E-02 0.27510138E+03</pdfrwt>
<totfact> 0.64367720E+03</totfact>
</mgrwt>
</event>
<event>
 5    1  0.1139158E+001  0.2611773E+03  0.7818608E-02  0.1106438E+00
          2   -1    0    0  501    0  0.00000000000E+00  0.00000000000E+00  0.54556494083E+03  0.54556494083E+03  0.00000000000E+00 0.  1.
         -2   -1    0    0    0  501 -0.00000000000E+00 -0.00000000000E+00 -0.31258239106E+02  0.31258239106E+02  0.00000000000E+00 0.  1.
         35    2    1    2    0    0  0.00000000000E+00  0.00000000000E+00  0.51430670172E+03  0.57682317994E+03  0.26117732956E+03 0.  0.
         25    1    3    3    0    0  0.25553835767E+02  0.43093328865E+02  0.23070917177E+03  0.26483344852E+03  0.12000000000E+03 0.  0.
         25    1    3    3    0    0 -0.25553835767E+02 -0.43093328865E+02  0.28359752995E+03  0.31198973142E+03  0.12000000000E+03 0.  0.
<mgrwt>
<rscale>  0 0.26117733E+03</rscale>
<asrwt>0</asrwt>
<pdfrwt beam="1">  1        2 0.83933061E-01 0.26117733E+03</pdfrwt>
<pdfrwt beam="2">  1       -2 0.48089603E-02 0.26117733E+03</pdfrwt>
<totfact> 0.11613403E+04</totfact>
</mgrwt>
</event>
<event>
 5    1  0.1139158E+001  0.2747313E+03  0.7818608E-02  0.1098602E+00
         -2   -1    0    0    0  501 -0.00000000000E+00  0.00000000000E+00  0.59667725601E+03  0.59667725601E+03  0.00000000000E+00 0. -1.
          2   -1    0    0  501    0  0.00000000000E+00 -0.00000000000E+00 -0.31623991304E+02  0.31623991304E+02  0.00000000000E+00 0. -1.
         35    2    1    2    0    0  0.00000000000E+00  0.00000000000E+00  0.56505326471E+03  0.62830124732E+03  0.27473126037E+03 0.  0.
         25    1    3    3    0    0  0.11965657731E+02  0.61563383677E+02  0.33547814424E+03  0.36177176843E+03  0.12000000000E+03 0.  0.
         25    1    3    3    0    0 -0.11965657731E+02 -0.61563383677E+02  0.22957512048E+03  0.26652947889E+03  0.12000000000E+03 0.  0.
<mgrwt>
<rscale>  0 0.27473126E+03</rscale>
<asrwt>0</asrwt>
<pdfrwt beam="1">  1        2 0.48652299E-02 0.27473126E+03</pdfrwt>
<pdfrwt beam="2">  1       -2 0.91796492E-01 0.27473126E+03</pdfrwt>
<totfact> 0.17015878E+03</totfact>
</mgrwt>
</event>
<event>
 5    1  0.1139158E+001  0.2742785E+03  0.7818608E-02  0.1098856E+00
         -2   -1    0    0    0  501 -0.00000000000E+00  0.00000000000E+00  0.51320786271E+02  0.51320786271E+02  0.00000000000E+00 0.  1.
          2   -1    0    0  501    0  0.00000000000E+00 -0.00000000000E+00 -0.36646316723E+03  0.36646316723E+03  0.00000000000E+00 0.  1.
         35    2    1    2    0    0  0.00000000000E+00  0.00000000000E+00 -0.31514238096E+03  0.41778395351E+03  0.27427852910E+03 0.  0.
         25    1    3    3    0    0  0.52309394284E+02  0.40176496083E+02 -0.16904636721E+03  0.21754792078E+03  0.12000000000E+03 0.  0.
         25    1    3    3    0    0 -0.52309394284E+02 -0.40176496083E+02 -0.14609601375E+03  0.20023603272E+03  0.12000000000E+03 0.  0.
<mgrwt>
<rscale>  0 0.27427853E+03</rscale>
<asrwt>0</asrwt>
<pdfrwt beam="1">  1        2 0.56378947E-01 0.27427853E+03</pdfrwt>
<pdfrwt beam="2">  1       -2 0.78955058E-02 0.27427853E+03</pdfrwt>
<totfact> 0.84226204E+03</totfact>
</mgrwt>
</event>
<event>
 5    1  0.1139158E+001  0.2750422E+03  0.7818608E-02  0.1098428E+00
         -1   -1    0    0    0  501 -0.00000000000E+00  0.00000000000E+00  0.16974139960E+02  0.16974139960E+02  0.00000000000E+00 0. -1.
          1   -1    0    0  501    0  0.00000000000E+00 -0.00000000000E+00 -0.11141684003E+04  0.11141684003E+04  0.00000000000E+00 0. -1.
         35    2    1    2    0    0  0.00000000000E+00  0.00000000000E+00 -0.10971942604E+04  0.11311425403E+04  0.27504218124E+03 0.  0.
         25    1    3    3    0    0  0.28650506687E+02  0.14048795112E+02 -0.79168815734E+03  0.80136655698E+03  0.12000000000E+03 0.  0.
         25    1    3    3    0    0 -0.28650506687E+02 -0.14048795112E+02 -0.30550610303E+03  0.32977598331E+03  0.12000000000E+03 0.  0.
<mgrwt>
<rscale>  0 0.27504218E+03</rscale>
<asrwt>0</asrwt>
<pdfrwt beam="1">  1        1 0.17141053E+00 0.27504218E+03</pdfrwt>
<pdfrwt beam="2">  1       -1 0.26114060E-02 0.27504218E+03</pdfrwt>
<totfact> 0.61005547E+03</totfact>
</mgrwt>
</event>
<event>
 5    1  0.1139158E+001  0.2742557E+03  0.7818608E-02  0.1098868E+00
          1   -1    0    0  501    0  0.00000000000E+00  0.00000000000E+00  0.32620208561E+03  0.32620208561E+03  0.00000000000E+00 0. -1.
         -1   -1    0    0    0  501 -0.00000000000E+00 -0.00000000000E+00 -0.57645393612E+02  0.57645393612E+02  0.00000000000E+00 0. -1.
         35    2    1    2    0    0  0.00000000000E+00  0.00000000000E+00  0.26855669200E+03  0.38384747922E+03  0.27425570274E+03 0.  0.
         25    1    3    3    0    0  0.28499451122E+02  0.59904339417E+02  0.13173622662E+03  0.19014516034E+03  0.12000000000E+03 0.  0.
         25    1    3    3    0    0 -0.28499451122E+02 -0.59904339417E+02  0.13682046537E+03  0.19370231888E+03  0.12000000000E+03 0.  0.
<mgrwt>
<rscale>  0 0.27425570E+03</rscale>
<asrwt>0</asrwt>
<pdfrwt beam="1">  1        1 0.50184935E-01 0.27425570E+03</pdfrwt>
<pdfrwt beam="2">  1       -1 0.88685223E-02 0.27425570E+03</pdfrwt>
<totfact> 0.57459718E+03</totfact>
</mgrwt>
</event>
<event>
 5    1  0.1139158E+001  0.2742080E+03  0.7818608E-02  0.1098895E+00
         -2   -1    0    0    0  501 -0.00000000000E+00  0.00000000000E+00  0.14136060520E+02  0.14136060520E+02  0.00000000000E+00 0.  1.
          2   -1    0    0  501    0  0.00000000000E+00 -0.00000000000E+00 -0.13297560363E+04  0.13297560363E+04  0.00000000000E+00 0.  1.
         35    2    1    2    0    0  0.00000000000E+00  0.00000000000E+00 -0.13156199757E+04  0.13438920968E+04  0.27420803639E+03 0.  0.
         25    1    3    3    0    0 -0.33439510641E+02 -0.33819025218E+02 -0.88429663251E+03  0.89366798175E+03  0.12000000000E+03 0.  0.
         25    1    3    3    0    0  0.33439510641E+02  0.33819025218E+02 -0.43132334324E+03  0.45022411504E+03  0.12000000000E+03 0.  0.
<mgrwt>
<rscale>  0 0.27420804E+03</rscale>
<asrwt>0</asrwt>
<pdfrwt beam="1">  1        2 0.20457786E+00 0.27420804E+03</pdfrwt>
<pdfrwt beam="2">  1       -2 0.21747784E-02 0.27420804E+03</pdfrwt>
<totfact> 0.11530557E+04</totfact>
</mgrwt>
</event>
<event>
 5    1  0.1139158E+001  0.2764935E+03  0.7818608E-02  0.1097620E+00
          3   -1    0    0  501    0  0.00000000000E+00  0.00000000000E+00  0.26735760872E+03  0.26735760872E+03  0.00000000000E+00 0. -1.
         -3   -1    0    0    0  501 -0.00000000000E+00 -0.00000000000E+00 -0.71485413163E+02  0.71485413163E+02  0.00000000000E+00 0. -1.
         35    2    1    2    0    0  0.00000000000E+00  0.00000000000E+00  0.19587219556E+03  0.33884302189E+03  0.27649353788E+03 0.  0.
         25    1    3    3    0    0  0.30753357827E+02  0.61313282182E+02  0.94674899680E+02  0.16753633701E+03  0.12000000000E+03 0.  0.
         25    1    3    3    0    0 -0.30753357827E+02 -0.61313282182E+02  0.10119729588E+03  0.17130668488E+03  0.12000000000E+03 0.  0.
<mgrwt>
<rscale>  0 0.27649354E+03</rscale>
<asrwt>0</asrwt>
<pdfrwt beam="1">  1        3 0.41131939E-01 0.27649354E+03</pdfrwt>
<pdfrwt beam="2">  1       -3 0.10997756E-01 0.27649354E+03</pdfrwt>
<totfact> 0.94199598E+02</totfact>
</mgrwt>
</event>
<event>
 5    1  0.1139158E+001  0.2760143E+03  0.7818608E-02  0.1097886E+00
          2   -1    0    0  501    0  0.00000000000E+00  0.00000000000E+00  0.22599329687E+03  0.22599329687E+03  0.00000000000E+00 0. -1.
         -2   -1    0    0    0  501 -0.00000000000E+00 -0.00000000000E+00 -0.84276692447E+02  0.84276692447E+02  0.00000000000E+00 0. -1.
         35    2    1    2    0    0  0.00000000000E+00  0.00000000000E+00  0.14171660442E+03  0.31026998932E+03  0.27601425742E+03 0.  0.
         25    1    3    3    0    0  0.38737870066E+02  0.26446315808E+01  0.78846318404E+01  0.12637161102E+03  0.12000000000E+03 0.  0.
         25    1    3    3    0    0 -0.38737870066E+02 -0.26446315808E+01  0.13383197258E+03  0.18389837829E+03  0.12000000000E+03 0.  0.
<mgrwt>
<rscale>  0 0.27601426E+03</rscale>
<asrwt>0</asrwt>
<pdfrwt beam="1">  1        2 0.34768199E-01 0.27601426E+03</pdfrwt>
<pdfrwt beam="2">  1       -2 0.12965645E-01 0.27601426E+03</pdfrwt>
<totfact> 0.64427802E+03</totfact>
</mgrwt>
</event>
<event>
 5    1  0.1139158E+001  0.2734412E+03  0.7818608E-02  0.1099326E+00
         -1   -1    0    0    0  501 -0.00000000000E+00  0.00000000000E+00  0.97632705731E+02  0.97632705731E+02  0.00000000000E+00 0.  1.
          1   -1    0    0  501    0  0.00000000000E+00 -0.00000000000E+00 -0.19145755435E+03  0.19145755435E+03  0.00000000000E+00 0.  1.
         35    2    1    2    0    0  0.00000000000E+00  0.00000000000E+00 -0.93824848620E+02  0.28909026008E+03  0.27344117513E+03 0.  0.
         25    1    3    3    0    0 -0.47647908112E+02 -0.23319916915E+02 -0.62622694683E+01  0.13135203726E+03  0.12000000000E+03 0.  0.
         25    1    3    3    0    0  0.47647908112E+02  0.23319916915E+02 -0.87562579151E+02  0.15773822283E+03  0.12000000000E+03 0.  0.
<mgrwt>
<rscale>  0 0.27344118E+03</rscale>
<asrwt>0</asrwt>
<pdfrwt beam="1">  1        1 0.29455008E-01 0.27344118E+03</pdfrwt>
<pdfrwt beam="2">  1       -1 0.15020416E-01 0.27344118E+03</pdfrwt>
<totfact> 0.49372660E+03</totfact>
</mgrwt>
</event>
<event>
 5    1  0.1139158E+001  0.2754475E+03  0.7818608E-02  0.1098202E+00
          2   -1    0    0  501    0  0.00000000000E+00  0.00000000000E+00  0.10465156108E+04  0.10465156108E+04  0.00000000000E+00 0.  1.
         -2   -1    0    0    0  501 -0.00000000000E+00 -0.00000000000E+00 -0.18124747291E+02  0.18124747291E+02  0.00000000000E+00 0.  1.
         35    2    1    2    0    0  0.00000000000E+00  0.00000000000E+00  0.10283908635E+04  0.10646403581E+04  0.27544749759E+03 0.  0.
         25    1    3    3    0    0 -0.18577113846E+02  0.13226690653E+02  0.76010326051E+03  0.76985519492E+03  0.12000000000E+03 0.  0.
         25    1    3    3    0    0  0.18577113846E+02 -0.13226690653E+02  0.26828760301E+03  0.29478516319E+03  0.12000000000E+03 0.  0.
<mgrwt>
<rscale>  0 0.27544750E+03</rscale>
<asrwt>0</asrwt>
<pdfrwt beam="1">  1        2 0.16100235E+00 0.27544750E+03</pdfrwt>
<pdfrwt beam="2">  1       -2 0.27884235E-02 0.27544750E+03</pdfrwt>
<totfact> 0.11592948E+04</totfact>
</mgrwt>
</event>
<event>
 5    1  0.1139158E+001  0.2747072E+03  0.7818608E-02  0.1098615E+00
          2   -1    0    0  501    0  0.00000000000E+00  0.00000000000E+00  0.16799719914E+04  0.16799719914E+04  0.00000000000E+00 0. -1.
         -2   -1    0    0    0  501 -0.00000000000E+00 -0.00000000000E+00 -0.11229957229E+02  0.11229957229E+02  0.00000000000E+00 0. -1.
         35    2    1    2    0    0  0.00000000000E+00  0.00000000000E+00  0.16687420341E+04  0.16912019486E+04  0.27470721585E+03 0.  0.
         25    1    3    3    0    0 -0.41225801038E+02  0.44336287924E+02  0.10085803042E+04  0.10174966846E+04  0.12000000000E+03 0.  0.
         25    1    3    3    0    0  0.41225801038E+02 -0.44336287924E+02  0.66016172995E+03  0.67370526404E+03  0.12000000000E+03 0.  0.
<mgrwt>
<rscale>  0 0.27470722E+03</rscale>
<asrwt>0</asrwt>
<pdfrwt beam="1">  1        2 0.25845703E+00 0.27470722E+03</pdfrwt>
<pdfrwt beam="2">  1       -2 0.17276871E-02 0.27470722E+03</pdfrwt>
<totfact> 0.10496380E+04</totfact>
</mgrwt>
</event>
<event>
 5    1  0.1139158E+001  0.2750254E+03  0.7818608E-02  0.1098437E+00
          2   -1    0    0  501    0  0.00000000000E+00  0.00000000000E+00  0.53346166851E+03  0.53346166851E+03  0.00000000000E+00 0. -1.
         -2   -1    0    0    0  501 -0.00000000000E+00 -0.00000000000E+00 -0.35447238243E+02  0.35447238243E+02  0.00000000000E+00 0. -1.
         35    2    1    2    0    0  0.00000000000E+00  0.00000000000E+00  0.49801443026E+03  0.56890890675E+03  0.27502540143E+03 0.  0.
         25    1    3    3    0    0  0.21611238102E+02 -0.28273569749E+02  0.36681219629E+03  0.38757918895E+03  0.12000000000E+03 0.  0.
         25    1    3    3    0    0 -0.21611238102E+02  0.28273569749E+02  0.13120223397E+03  0.18132971780E+03  0.12000000000E+03 0.  0.
<mgrwt>
<rscale>  0 0.27502540E+03</rscale>
<asrwt>0</asrwt>
<pdfrwt beam="1">  1        2 0.82071020E-01 0.27502540E+03</pdfrwt>
<pdfrwt beam="2">  1       -2 0.54534217E-02 0.27502540E+03</pdfrwt>
<totfact> 0.98595113E+03</totfact>
</mgrwt>
</event>
<event>
 5    1  0.1139158E+001  0.2753127E+03  0.7818608E-02  0.1098277E+00
          2   -1    0    0  501    0  0.00000000000E+00  0.00000000000E+00  0.19383472809E+04  0.19383472809E+04  0.00000000000E+00 0. -1.
         -2   -1    0    0    0  501 -0.00000000000E+00 -0.00000000000E+00 -0.97759933157E+01  0.97759933157E+01  0.00000000000E+00 0. -1.
         35    2    1    2    0    0  0.00000000000E+00  0.00000000000E+00  0.19285712876E+04  0.19481232743E+04  0.27531269540E+03 0.  0.
         25    1    3    3    0    0 -0.37594418079E+02 -0.26177477192E+02  0.13145795382E+04  0.13208398702E+04  0.12000000000E+03 0.  0.
         25    1    3    3    0    0  0.37594418079E+02  0.26177477192E+02  0.61399174945E+03  0.62728340403E+03  0.12000000000E+03 0.  0.
<mgrwt>
<rscale>  0 0.27531270E+03</rscale>
<asrwt>0</asrwt>
<pdfrwt beam="1">  1        2 0.29820697E+00 0.27531270E+03</pdfrwt>
<pdfrwt beam="2">  1       -2 0.15040005E-02 0.27531270E+03</pdfrwt>
<totfact> 0.94082316E+03</totfact>
</mgrwt>
</event>
<event>
 5    1  0.1139158E+001  0.2754855E+03  0.7818608E-02  0.1098181E+00
         -2   -1    0    0    0  501 -0.00000000000E+00  0.00000000000E+00  0.16978255888E+02  0.16978255888E+02  0.00000000000E+00 0. -1.
          2   -1    0    0  501    0  0.00000000000E+00 -0.00000000000E+00 -0.11174920190E+04  0.11174920190E+04  0.00000000000E+00 0. -1.
         35    2    1    2    0    0  0.00000000000E+00  0.00000000000E+00 -0.11005137631E+04  0.11344702749E+04  0.27548550199E+03 0.  0.
         25    1    3    3    0    0  0.36608696110E+01  0.21519262827E+02 -0.81383256925E+03  0.82292158279E+03  0.12000000000E+03 0.  0.
         25    1    3    3    0    0 -0.36608696110E+01 -0.21519262827E+02 -0.28668119389E+03  0.31154869213E+03  0.12000000000E+03 0.  0.
<mgrwt>
<rscale>  0 0.27548550E+03</rscale>
<asrwt>0</asrwt>
<pdfrwt beam="1">  1        2 0.17192186E+00 0.27548550E+03</pdfrwt>
<pdfrwt beam="2">  1       -2 0.26120393E-02 0.27548550E+03</pdfrwt>
<totfact> 0.11595773E+04</totfact>
</mgrwt>
</event>
<event>
 5    1  0.1139158E+001  0.2751342E+03  0.7818608E-02  0.1098377E+00
          2   -1    0    0  501    0  0.00000000000E+00  0.00000000000E+00  0.28657231169E+03  0.28657231169E+03  0.00000000000E+00 0. -1.
         -2   -1    0    0    0  501 -0.00000000000E+00 -0.00000000000E+00 -0.66038174520E+02  0.66038174520E+02  0.00000000000E+00 0. -1.
         35    2    1    2    0    0  0.00000000000E+00  0.00000000000E+00  0.22053413717E+03  0.35261048621E+03  0.27513423874E+03 0.  0.
         25    1    3    3    0    0 -0.30280131303E+01 -0.42082107622E+02  0.17740891093E+03  0.21829794851E+03  0.12000000000E+03 0.  0.
         25    1    3    3    0    0  0.30280131303E+01  0.42082107622E+02  0.43125226237E+02  0.13431253770E+03  0.12000000000E+03 0.  0.
<mgrwt>
<rscale>  0 0.27513424E+03</rscale>
<asrwt>0</asrwt>
<pdfrwt beam="1">  1        2 0.44088047E-01 0.27513424E+03</pdfrwt>
<pdfrwt beam="2">  1       -2 0.10159719E-01 0.27513424E+03</pdfrwt>
<totfact> 0.73791861E+03</totfact>
</mgrwt>
</event>
<event>
 5    1  0.1139158E+001  0.2745140E+03  0.7818608E-02  0.1098724E+00
          3   -1    0    0  501    0  0.00000000000E+00  0.00000000000E+00  0.52548778913E+03  0.52548778913E+03  0.00000000000E+00 0. -1.
         -3   -1    0    0    0  501 -0.00000000000E+00 -0.00000000000E+00 -0.35851430604E+02  0.35851430604E+02  0.00000000000E+00 0. -1.
         35    2    1    2    0    0  0.00000000000E+00  0.00000000000E+00  0.48963635853E+03  0.56133921974E+03  0.27451403611E+03 0.  0.
         25    1    3    3    0    0  0.24380180970E+02  0.41664860581E+02  0.33872843835E+03  0.36258420922E+03  0.12000000000E+03 0.  0.
         25    1    3    3    0    0 -0.24380180970E+02 -0.41664860581E+02  0.15090792018E+03  0.19875501051E+03  0.12000000000E+03 0.  0.
<mgrwt>
<rscale>  0 0.27451404E+03</rscale>
<asrwt>0</asrwt>
<pdfrwt beam="1">  1        3 0.80844270E-01 0.27451404E+03</pdfrwt>
<pdfrwt beam="2">  1       -3 0.55156051E-02 0.27451404E+03</pdfrwt>
<totfact> 0.72196468E+02</totfact>
</mgrwt>
</event>
<event>
 4    1  0.1139158E+001  0.3001060E+03  0.7818608E-02  0.1085188E+00
          4   -1    0    0  501    0  0.00000000000E+00  0.00000000000E+00  0.14412812255E+04  0.14412812255E+04  0.00000000000E+00 0.  1.
         -4   -1    0    0    0  501 -0.00000000000E+00 -0.00000000000E+00 -0.15622139299E+02  0.15622139299E+02  0.00000000000E+00 0.  1.
         25    1    1    2    0    0  0.41247140861E+01 -0.54954512348E+02  0.10588010205E+04  0.10670035673E+04  0.12000000000E+03 0.  0.
         25    1    1    2    0    0 -0.41247140861E+01  0.54954512348E+02  0.36685806571E+03  0.38989979747E+03  0.12000000000E+03 0.  0.
<mgrwt>
<rscale>  0 0.30010596E+03</rscale>
<asrwt>0</asrwt>
<pdfrwt beam="1">  1        4 0.22173547E+00 0.30010596E+03</pdfrwt>
<pdfrwt beam="2">  1       -4 0.24034072E-02 0.30010596E+03</pdfrwt>
<totfact> 0.15171429E+02</totfact>
</mgrwt>
</event>
<event>
 5    1  0.1139158E+001  0.2750021E+03  0.7818608E-02  0.1098450E+00
          1   -1    0    0  501    0  0.00000000000E+00  0.00000000000E+00  0.51974848993E+02  0.51974848993E+02  0.00000000000E+00 0. -1.
         -1   -1    0    0    0  501 -0.00000000000E+00 -0.00000000000E+00 -0.36376325141E+03  0.36376325141E+03  0.00000000000E+00 0. -1.
         35    2    1    2    0    0  0.00000000000E+00  0.00000000000E+00 -0.31178840241E+03  0.41573810040E+03  0.27500210953E+03 0.  0.
         25    1    3    3    0    0 -0.62155790978E+02 -0.14157000110E+02 -0.12408327189E+03  0.18401201419E+03  0.12000000000E+03 0.  0.
         25    1    3    3    0    0  0.62155790978E+02  0.14157000110E+02 -0.18770513053E+03  0.23172608621E+03  0.12000000000E+03 0.  0.
<mgrwt>
<rscale>  0 0.27500211E+03</rscale>
<asrwt>0</asrwt>
<pdfrwt beam="1">  1        1 0.79961308E-02 0.27500211E+03</pdfrwt>
<pdfrwt beam="2">  1       -1 0.55963576E-01 0.27500211E+03</pdfrwt>
<totfact> 0.28812403E+03</totfact>
</mgrwt>
</event>
<event>
 5    1  0.1139158E+001  0.2752013E+03  0.7818608E-02  0.1098339E+00
          1   -1    0    0  501    0  0.00000000000E+00  0.00000000000E+00  0.13669770506E+04  0.13669770506E+04  0.00000000000E+00 0. -1.
         -1   -1    0    0    0  501 -0.00000000000E+00 -0.00000000000E+00 -0.13850952080E+02  0.13850952080E+02  0.00000000000E+00 0. -1.
         35    2    1    2    0    0  0.00000000000E+00  0.00000000000E+00  0.13531260985E+04  0.13808280027E+04  0.27520126179E+03 0.  0.
         25    1    3    3    0    0  0.63272139447E+02  0.59258429084E+01  0.78824705964E+03  0.79985742871E+03  0.12000000000E+03 0.  0.
         25    1    3    3    0    0 -0.63272139447E+02 -0.59258429084E+01  0.56487903888E+03  0.58097057396E+03  0.12000000000E+03 0.  0.
<mgrwt>
<rscale>  0 0.27520126E+03</rscale>
<asrwt>0</asrwt>
<pdfrwt beam="1">  1        1 0.21030405E+00 0.27520126E+03</pdfrwt>
<pdfrwt beam="2">  1       -1 0.21309168E-02 0.27520126E+03</pdfrwt>
<totfact> 0.54892839E+03</totfact>
</mgrwt>
</event>
<event>
 5    1  0.1139158E+001  0.2747965E+03  0.7818608E-02  0.1098565E+00
          1   -1    0    0  501    0  0.00000000000E+00  0.00000000000E+00  0.78151283704E+02  0.78151283704E+02  0.00000000000E+00 0. -1.
         -1   -1    0    0    0  501 -0.00000000000E+00 -0.00000000000E+00 -0.24156066870E+03  0.24156066870E+03  0.00000000000E+00 0. -1.
         35    2    1    2    0    0  0.00000000000E+00  0.00000000000E+00 -0.16340938500E+03  0.31971195241E+03  0.27479647997E+03 0.  0.
         25    1    3    3    0    0 -0.55689702927E+02  0.31475428728E+02 -0.10456968785E+03  0.17154260475E+03  0.12000000000E+03 0.  0.
         25    1    3    3    0    0  0.55689702927E+02 -0.31475428728E+02 -0.58839697146E+02  0.14816934766E+03  0.12000000000E+03 0.  0.
<mgrwt>
<rscale>  0 0.27479648E+03</rscale>
<asrwt>0</asrwt>
<pdfrwt beam="1">  1        1 0.12023275E-01 0.27479648E+03</pdfrwt>
<pdfrwt beam="2">  1       -1 0.37163179E-01 0.27479648E+03</pdfrwt>
<totfact> 0.35047080E+03</totfact>
</mgrwt>
</event>
<event>
 5    1  0.1139158E+001  0.2740186E+03  0.7818608E-02  0.1099001E+00
         -2   -1    0    0    0  501 -0.00000000000E+00  0.00000000000E+00  0.24068038149E+02  0.24068038149E+02  0.00000000000E+00 0. -1.
          2   -1    0    0  501    0  0.00000000000E+00 -0.00000000000E+00 -0.77993690913E+03  0.77993690913E+03  0.00000000000E+00 0. -1.
         35    2    1    2    0    0  0.00000000000E+00  0.00000000000E+00 -0.75586887098E+03  0.80400494728E+03  0.27401862187E+03 0.  0.
         25    1    3    3    0    0  0.22916379569E+02 -0.28215943102E+02 -0.21588539651E+03  0.24965537111E+03  0.12000000000E+03 0.  0.
         25    1    3    3    0    0 -0.22916379569E+02  0.28215943102E+02 -0.53998347447E+03  0.55434957617E+03  0.12000000000E+03 0.  0.
<mgrwt>
<rscale>  0 0.27401862E+03</rscale>
<asrwt>0</asrwt>
<pdfrwt beam="1">  1        2 0.11999027E+00 0.27401862E+03</pdfrwt>
<pdfrwt beam="2">  1       -2 0.37027760E-02 0.27401862E+03</pdfrwt>
<totfact> 0.11274928E+04</totfact>
</mgrwt>
</event>
<event>
 5    1  0.1139158E+001  0.2754663E+03  0.7818608E-02  0.1098191E+00
          2   -1    0    0  501    0  0.00000000000E+00  0.00000000000E+00  0.14184238374E+04  0.14184238374E+04  0.00000000000E+00 0. -1.
         -2   -1    0    0    0  501 -0.00000000000E+00 -0.00000000000E+00 -0.13374292779E+02  0.13374292779E+02  0.00000000000E+00 0. -1.
         35    2    1    2    0    0  0.00000000000E+00  0.00000000000E+00  0.14050495447E+04  0.14317981302E+04  0.27546626426E+03 0.  0.
         25    1    3    3    0    0  0.30150926127E+02  0.26527770118E+00  0.38801867446E+03  0.40726851148E+03  0.12000000000E+03 0.  0.
         25    1    3    3    0    0 -0.30150926127E+02 -0.26527770118E+00  0.10170308702E+04  0.10245296187E+04  0.12000000000E+03 0.  0.
<mgrwt>
<rscale>  0 0.27546626E+03</rscale>
<asrwt>0</asrwt>
<pdfrwt beam="1">  1        2 0.21821893E+00 0.27546626E+03</pdfrwt>
<pdfrwt beam="2">  1       -2 0.20575846E-02 0.27546626E+03</pdfrwt>
<totfact> 0.11193443E+04</totfact>
</mgrwt>
</event>
<event>
 5    1  0.1139158E+001  0.2747361E+03  0.7818608E-02  0.1098599E+00
         -2   -1    0    0    0  501 -0.00000000000E+00  0.00000000000E+00  0.91168245569E+01  0.91168245569E+01  0.00000000000E+00 0. -1.
          2   -1    0    0  501    0  0.00000000000E+00 -0.00000000000E+00 -0.20697977937E+04  0.20697977937E+04  0.00000000000E+00 0. -1.
         35    2    1    2    0    0  0.00000000000E+00  0.00000000000E+00 -0.20606809691E+04  0.20789146183E+04  0.27473611596E+03 0.  0.
         25    1    3    3    0    0 -0.44937616110E+02 -0.31076882545E+02 -0.73876030069E+03  0.75043450336E+03  0.12000000000E+03 0.  0.
         25    1    3    3    0    0  0.44937616110E+02  0.31076882545E+02 -0.13219206685E+04  0.13284801149E+04  0.12000000000E+03 0.  0.
<mgrwt>
<rscale>  0 0.27473612E+03</rscale>
<asrwt>0</asrwt>
<pdfrwt beam="1">  1        2 0.31843103E+00 0.27473612E+03</pdfrwt>
<pdfrwt beam="2">  1       -2 0.14025857E-02 0.27473612E+03</pdfrwt>
<totfact> 0.88846493E+03</totfact>
</mgrwt>
</event>
<event>
 5    1  0.1139158E+001  0.2753193E+03  0.7818608E-02  0.1098273E+00
          2   -1    0    0  501    0  0.00000000000E+00  0.00000000000E+00  0.82759183189E+03  0.82759183189E+03  0.00000000000E+00 0. -1.
         -2   -1    0    0    0  501 -0.00000000000E+00 -0.00000000000E+00 -0.22897973770E+02  0.22897973770E+02  0.00000000000E+00 0. -1.
         35    2    1    2    0    0  0.00000000000E+00  0.00000000000E+00  0.80469385812E+03  0.85048980566E+03  0.27531927691E+03 0.  0.
         25    1    3    3    0    0 -0.22358403886E+02  0.28928387496E+02  0.57745923193E+03  0.59092801115E+03  0.12000000000E+03 0.  0.
         25    1    3    3    0    0  0.22358403886E+02 -0.28928387496E+02  0.22723462620E+03  0.25956179451E+03  0.12000000000E+03 0.  0.
<mgrwt>
<rscale>  0 0.27531928E+03</rscale>
<asrwt>0</asrwt>
<pdfrwt beam="1">  1        2 0.12732180E+00 0.27531928E+03</pdfrwt>
<pdfrwt beam="2">  1       -2 0.35227658E-02 0.27531928E+03</pdfrwt>
<totfact> 0.11265901E+04</totfact>
</mgrwt>
</event>
<event>
 5    1  0.1139158E+001  0.2748003E+03  0.7818608E-02  0.1098563E+00
         -2   -1    0    0    0  501 -0.00000000000E+00  0.00000000000E+00  0.17729644601E+03  0.17729644601E+03  0.00000000000E+00 0. -1.
          2   -1    0    0  501    0  0.00000000000E+00 -0.00000000000E+00 -0.10648155253E+03  0.10648155253E+03  0.00000000000E+00 0. -1.
         35    2    1    2    0    0  0.00000000000E+00  0.00000000000E+00  0.70814893475E+02  0.28377799854E+03  0.27480029716E+03 0.  0.
         25    1    3    3    0    0 -0.39264130654E+01  0.66806451796E+02  0.34858955469E+02  0.14175212696E+03  0.12000000000E+03 0.  0.
         25    1    3    3    0    0  0.39264130654E+01 -0.66806451796E+02  0.35955938006E+02  0.14202587158E+03  0.12000000000E+03 0.  0.
<mgrwt>
<rscale>  0 0.27480030E+03</rscale>
<asrwt>0</asrwt>
<pdfrwt beam="1">  1        2 0.16381777E-01 0.27480030E+03</pdfrwt>
<pdfrwt beam="2">  1       -2 0.27276376E-01 0.27480030E+03</pdfrwt>
<totfact> 0.42406658E+03</totfact>
</mgrwt>
</event>
<event>
 5    1  0.1139158E+001  0.2741747E+03  0.7818608E-02  0.1098914E+00
          1   -1    0    0  501    0  0.00000000000E+00  0.00000000000E+00  0.14473153773E+04  0.14473153773E+04  0.00000000000E+00 0.  1.
         -1   -1    0    0    0  501 -0.00000000000E+00 -0.00000000000E+00 -0.12984690114E+02  0.12984690114E+02  0.00000000000E+00 0.  1.
         35    2    1    2    0    0  0.00000000000E+00  0.00000000000E+00  0.14343306872E+04  0.14603000675E+04  0.27417470103E+03 0.  0.
         25    1    3    3    0    0  0.20463785204E+02  0.50543584092E+02  0.51649385172E+03  0.53304720172E+03  0.12000000000E+03 0.  0.
         25    1    3    3    0    0 -0.20463785204E+02 -0.50543584092E+02  0.91783683551E+03  0.92725286573E+03  0.12000000000E+03 0.  0.
<mgrwt>
<rscale>  0 0.27417470E+03</rscale>
<asrwt>0</asrwt>
<pdfrwt beam="1">  1        1 0.22266378E+00 0.27417470E+03</pdfrwt>
<pdfrwt beam="2">  1       -1 0.19976458E-02 0.27417470E+03</pdfrwt>
<totfact> 0.53287568E+03</totfact>
</mgrwt>
</event>
<event>
 5    1  0.1139158E+001  0.2744905E+03  0.7818608E-02  0.1098737E+00
         -1   -1    0    0    0  501 -0.00000000000E+00  0.00000000000E+00  0.61685562011E+02  0.61685562011E+02  0.00000000000E+00 0. -1.
          1   -1    0    0  501    0  0.00000000000E+00 -0.00000000000E+00 -0.30535934441E+03  0.30535934441E+03  0.00000000000E+00 0. -1.
         35    2    1    2    0    0  0.00000000000E+00  0.00000000000E+00 -0.24367378240E+03  0.36704490643E+03  0.27449053008E+03 0.  0.
         25    1    3    3    0    0  0.10138527635E+02 -0.23662875529E+02 -0.20397910300E+03  0.23805502700E+03  0.12000000000E+03 0.  0.
         25    1    3    3    0    0 -0.10138527635E+02  0.23662875529E+02 -0.39694679409E+02  0.12898987943E+03  0.12000000000E+03 0.  0.
<mgrwt>
<rscale>  0 0.27449053E+03</rscale>
<asrwt>0</asrwt>
<pdfrwt beam="1">  1        1 0.46978361E-01 0.27449053E+03</pdfrwt>
<pdfrwt beam="2">  1       -1 0.94900865E-02 0.27449053E+03</pdfrwt>
<totfact> 0.56268163E+03</totfact>
</mgrwt>
</event>
<event>
 5    1  0.1139158E+001  0.2732181E+03  0.7818608E-02  0.1099452E+00
         -2   -1    0    0    0  501 -0.00000000000E+00  0.00000000000E+00  0.10784931463E+02  0.10784931463E+02  0.00000000000E+00 0.  1.
          2   -1    0    0  501    0  0.00000000000E+00 -0.00000000000E+00 -0.17303796645E+04  0.17303796645E+04  0.00000000000E+00 0.  1.
         35    2    1    2    0    0  0.00000000000E+00  0.00000000000E+00 -0.17195947330E+04  0.17411645959E+04  0.27321805275E+03 0.  0.
         25    1    3    3    0    0 -0.54236723310E+02 -0.31803819282E+01 -0.10904795219E+04  0.10984067209E+04  0.12000000000E+03 0.  0.
         25    1    3    3    0    0  0.54236723310E+02  0.31803819282E+01 -0.62911521115E+03  0.64275787501E+03  0.12000000000E+03 0.  0.
<mgrwt>
<rscale>  0 0.27321805E+03</rscale>
<asrwt>0</asrwt>
<pdfrwt beam="1">  1        2 0.26621219E+00 0.27321805E+03</pdfrwt>
<pdfrwt beam="2">  1       -2 0.16592206E-02 0.27321805E+03</pdfrwt>
<totfact> 0.10476207E+04</totfact>
</mgrwt>
</event>
<event>
 5    1  0.1139158E+001  0.2725802E+03  0.7818608E-02  0.1099812E+00
          2   -1    0    0  501    0  0.00000000000E+00  0.00000000000E+00  0.16345481315E+03  0.16345481315E+03  0.00000000000E+00 0. -1.
         -2   -1    0    0    0  501 -0.00000000000E+00 -0.00000000000E+00 -0.11363987575E+03  0.11363987575E+03  0.00000000000E+00 0. -1.
         35    2    1    2    0    0  0.00000000000E+00  0.00000000000E+00  0.49814937393E+02  0.27709468890E+03  0.27258015083E+03 0.  0.
         25    1    3    3    0    0  0.38936993065E+02 -0.47580299872E+02  0.47034305476E+01  0.13491514601E+03  0.12000000000E+03 0.  0.
         25    1    3    3    0    0 -0.38936993065E+02  0.47580299872E+02  0.45111506846E+02  0.14217954288E+03  0.12000000000E+03 0.  0.
<mgrwt>
<rscale>  0 0.27258015E+03</rscale>
<asrwt>0</asrwt>
<pdfrwt beam="1">  1        2 0.25146894E-01 0.27258015E+03</pdfrwt>
<pdfrwt beam="2">  1       -2 0.17483058E-01 0.27258015E+03</pdfrwt>
<totfact> 0.56103178E+03</totfact>
</mgrwt>
</event>
<event>
 5    1  0.1139158E+001  0.2817926E+03  0.7818608E-02  0.1094714E+00
          2   -1    0    0  501    0  0.00000000000E+00  0.00000000000E+00  0.19647294817E+04  0.19647294817E+04  0.00000000000E+00 0.  1.
         -2   -1    0    0    0  501 -0.00000000000E+00 -0.00000000000E+00 -0.10104070476E+02  0.10104070476E+02  0.00000000000E+00 0.  1.
         35    2    1    2    0    0  0.00000000000E+00  0.00000000000E+00  0.19546254113E+04  0.19748335522E+04  0.28179258436E+03 0.  0.
         25    1    3    3    0    0 -0.88630220874E+01 -0.48983988728E+02  0.59514374036E+03  0.60915848185E+03  0.12000000000E+03 0.  0.
         25    1    3    3    0    0  0.88630220874E+01  0.48983988728E+02  0.13594816709E+04  0.13656750704E+04  0.12000000000E+03 0.  0.
<mgrwt>
<rscale>  0 0.28179258E+03</rscale>
<asrwt>0</asrwt>
<pdfrwt beam="1">  1        2 0.30226577E+00 0.28179258E+03</pdfrwt>
<pdfrwt beam="2">  1       -2 0.15544739E-02 0.28179258E+03</pdfrwt>
<totfact> 0.86845892E+03</totfact>
</mgrwt>
</event>
<event>
 5    1  0.1139158E+001  0.2747454E+03  0.7818608E-02  0.1098594E+00
          2   -1    0    0  501    0  0.00000000000E+00  0.00000000000E+00  0.18206575733E+04  0.18206575733E+04  0.00000000000E+00 0. -1.
         -2   -1    0    0    0  501 -0.00000000000E+00 -0.00000000000E+00 -0.10365077366E+02  0.10365077366E+02  0.00000000000E+00 0. -1.
         35    2    1    2    0    0  0.00000000000E+00  0.00000000000E+00  0.18102924960E+04  0.18310226507E+04  0.27474538471E+03 0.  0.
         25    1    3    3    0    0  0.89498992798E+01 -0.43888264418E+02  0.57426689164E+03  0.58837806153E+03  0.12000000000E+03 0.  0.
         25    1    3    3    0    0 -0.89498992798E+01  0.43888264418E+02  0.12360256043E+04  0.12426445892E+04  0.12000000000E+03 0.  0.
<mgrwt>
<rscale>  0 0.27474538E+03</rscale>
<asrwt>0</asrwt>
<pdfrwt beam="1">  1        2 0.28010091E+00 0.27474538E+03</pdfrwt>
<pdfrwt beam="2">  1       -2 0.15946287E-02 0.27474538E+03</pdfrwt>
<totfact> 0.99559186E+03</totfact>
</mgrwt>
</event>
<event>
 5    1  0.1139158E+001  0.2744923E+03  0.7818608E-02  0.1098736E+00
         -1   -1    0    0    0  501 -0.00000000000E+00  0.00000000000E+00  0.67235593851E+02  0.67235593851E+02  0.00000000000E+00 0. -1.
          1   -1    0    0  501    0  0.00000000000E+00 -0.00000000000E+00 -0.28015677247E+03  0.28015677247E+03  0.00000000000E+00 0. -1.
         35    2    1    2    0    0  0.00000000000E+00  0.00000000000E+00 -0.21292117862E+03  0.34739236632E+03  0.27449230932E+03 0.  0.
         25    1    3    3    0    0 -0.20483794002E+02 -0.60743949045E+02 -0.83571619296E+02  0.15966724371E+03  0.12000000000E+03 0.  0.
         25    1    3    3    0    0  0.20483794002E+02  0.60743949045E+02 -0.12934955933E+03  0.18772512261E+03  0.12000000000E+03 0.  0.
<mgrwt>
<rscale>  0 0.27449231E+03</rscale>
<asrwt>0</asrwt>
<pdfrwt beam="1">  1        1 0.43101042E-01 0.27449231E+03</pdfrwt>
<pdfrwt beam="2">  1       -1 0.10343938E-01 0.27449231E+03</pdfrwt>
<totfact> 0.54888623E+03</totfact>
</mgrwt>
</event>
<event>
 5    1  0.1139158E+001  0.2752543E+03  0.7818608E-02  0.1098310E+00
          2   -1    0    0  501    0  0.00000000000E+00  0.00000000000E+00  0.53740025117E+03  0.53740025117E+03  0.00000000000E+00 0. -1.
         -2   -1    0    0    0  501 -0.00000000000E+00 -0.00000000000E+00 -0.35246052769E+02  0.35246052769E+02  0.00000000000E+00 0. -1.
         35    2    1    2    0    0  0.00000000000E+00  0.00000000000E+00  0.50215419840E+03  0.57264630393E+03  0.27525433774E+03 0.  0.
         25    1    3    3    0    0 -0.42185791120E+02 -0.26985969330E+02  0.34488918624E+03  0.36858707831E+03  0.12000000000E+03 0.  0.
         25    1    3    3    0    0  0.42185791120E+02  0.26985969330E+02  0.15726501216E+03  0.20405922562E+03  0.12000000000E+03 0.  0.
<mgrwt>
<rscale>  0 0.27525434E+03</rscale>
<asrwt>0</asrwt>
<pdfrwt beam="1">  1        2 0.82676956E-01 0.27525434E+03</pdfrwt>
<pdfrwt beam="2">  1       -2 0.54224700E-02 0.27525434E+03</pdfrwt>
<totfact> 0.98632957E+03</totfact>
</mgrwt>
</event>
<event>
 5    1  0.1139158E+001  0.2707390E+03  0.7818608E-02  0.1100857E+00
         -2   -1    0    0    0  501 -0.00000000000E+00  0.00000000000E+00  0.14461648021E+03  0.14461648021E+03  0.00000000000E+00 0.  1.
          2   -1    0    0  501    0  0.00000000000E+00 -0.00000000000E+00 -0.12671374524E+03  0.12671374524E+03  0.00000000000E+00 0.  1.
         35    2    1    2    0    0  0.00000000000E+00  0.00000000000E+00  0.17902734971E+02  0.27133022545E+03  0.27073895790E+03 0.  0.
         25    1    3    3    0    0 -0.59261913825E+00 -0.24039876680E+02 -0.49025027266E+02  0.13183975185E+03  0.12000000000E+03 0.  0.
         25    1    3    3    0    0  0.59261913825E+00  0.24039876680E+02  0.66927762237E+02  0.13949047360E+03  0.12000000000E+03 0.  0.
<mgrwt>
<rscale>  0 0.27073896E+03</rscale>
<asrwt>0</asrwt>
<pdfrwt beam="1">  1        2 0.19494422E-01 0.27073896E+03</pdfrwt>
<pdfrwt beam="2">  1       -2 0.22248689E-01 0.27073896E+03</pdfrwt>
<totfact> 0.49580726E+03</totfact>
</mgrwt>
</event>
<event>
 5    1  0.1139158E+001  0.2750484E+03  0.7818608E-02  0.1098425E+00
          1   -1    0    0  501    0  0.00000000000E+00  0.00000000000E+00  0.12880824650E+04  0.12880824650E+04  0.00000000000E+00 0. -1.
         -1   -1    0    0    0  501 -0.00000000000E+00 -0.00000000000E+00 -0.14682993455E+02  0.14682993455E+02  0.00000000000E+00 0. -1.
         35    2    1    2    0    0  0.00000000000E+00  0.00000000000E+00  0.12733994715E+04  0.13027654584E+04  0.27504840594E+03 0.  0.
         25    1    3    3    0    0  0.38226109204E+02 -0.46841817240E+02  0.49799924428E+03  0.51580872285E+03  0.12000000000E+03 0.  0.
         25    1    3    3    0    0 -0.38226109204E+02  0.46841817240E+02  0.77540022725E+03  0.78695673559E+03  0.12000000000E+03 0.  0.
<mgrwt>
<rscale>  0 0.27504841E+03</rscale>
<asrwt>0</asrwt>
<pdfrwt beam="1">  1        1 0.19816644E+00 0.27504841E+03</pdfrwt>
<pdfrwt beam="2">  1       -1 0.22589231E-02 0.27504841E+03</pdfrwt>
<totfact> 0.57024168E+03</totfact>
</mgrwt>
</event>
<event>
 5    1  0.1139158E+001  0.2739919E+03  0.7818608E-02  0.1099016E+00
         -2   -1    0    0    0  501 -0.00000000000E+00  0.00000000000E+00  0.92516467017E+01  0.92516467017E+01  0.00000000000E+00 0.  1.
          2   -1    0    0  501    0  0.00000000000E+00 -0.00000000000E+00 -0.20286001285E+04  0.20286001285E+04  0.00000000000E+00 0.  1.
         35    2    1    2    0    0  0.00000000000E+00  0.00000000000E+00 -0.20193484818E+04  0.20378517752E+04  0.27399191001E+03 0.  0.
         25    1    3    3    0    0  0.65140256234E+02  0.16282663957E+01 -0.92752710316E+03  0.93752462972E+03  0.12000000000E+03 0.  0.
         25    1    3    3    0    0 -0.65140256234E+02 -0.16282663957E+01 -0.10918213786E+04  0.11003271455E+04  0.12000000000E+03 0.  0.
<mgrwt>
<rscale>  0 0.27399191E+03</rscale>
<asrwt>0</asrwt>
<pdfrwt beam="1">  1        2 0.31209227E+00 0.27399191E+03</pdfrwt>
<pdfrwt beam="2">  1       -2 0.14233305E-02 0.27399191E+03</pdfrwt>
<totfact> 0.91418204E+03</totfact>
</mgrwt>
</event>
<event>
 5    1  0.1139158E+001  0.2743624E+03  0.7818608E-02  0.1098809E+00
         -2   -1    0    0    0  501 -0.00000000000E+00  0.00000000000E+00  0.61222132597E+02  0.61222132597E+02  0.00000000000E+00 0.  1.
          2   -1    0    0  501    0  0.00000000000E+00 -0.00000000000E+00 -0.30738359132E+03  0.30738359132E+03  0.00000000000E+00 0.  1.
         35    2    1    2    0    0  0.00000000000E+00  0.00000000000E+00 -0.24616145873E+03  0.36860572392E+03  0.27436238070E+03 0.  0.
         25    1    3    3    0    0  0.58109027299E+00  0.33519506556E+02 -0.45963576638E+02  0.13280265571E+03  0.12000000000E+03 0.  0.
         25    1    3    3    0    0 -0.58109027299E+00 -0.33519506556E+02 -0.20019788209E+03  0.23580306821E+03  0.12000000000E+03 0.  0.
<mgrwt>
<rscale>  0 0.27436238E+03</rscale>
<asrwt>0</asrwt>
<pdfrwt beam="1">  1        2 0.47289783E-01 0.27436238E+03</pdfrwt>
<pdfrwt beam="2">  1       -2 0.94187896E-02 0.27436238E+03</pdfrwt>
<totfact> 0.77160887E+03</totfact>
</mgrwt>
</event>
<event>
 5    1  0.1139158E+001  0.2745487E+03  0.7818608E-02  0.1098704E+00
          1   -1    0    0  501    0  0.00000000000E+00  0.00000000000E+00  0.51520717276E+03  0.51520717276E+03  0.00000000000E+00 0.  1.
         -1   -1    0    0    0  501 -0.00000000000E+00 -0.00000000000E+00 -0.36576055480E+02  0.36576055480E+02  0.00000000000E+00 0.  1.
         35    2    1    2    0    0  0.00000000000E+00  0.00000000000E+00  0.47863111728E+03  0.55178322824E+03  0.27454869247E+03 0.  0.
         25    1    3    3    0    0 -0.27824911340E+02  0.52505609606E+02  0.30004896572E+03  0.32857335035E+03  0.12000000000E+03 0.  0.
         25    1    3    3    0    0  0.27824911340E+02 -0.52505609606E+02  0.17858215156E+03  0.22320987789E+03  0.12000000000E+03 0.  0.
<mgrwt>
<rscale>  0 0.27454869E+03</rscale>
<asrwt>0</asrwt>
<pdfrwt beam="1">  1        1 0.79262637E-01 0.27454869E+03</pdfrwt>
<pdfrwt beam="2">  1       -1 0.56270858E-02 0.27454869E+03</pdfrwt>
<totfact> 0.63566489E+03</totfact>
</mgrwt>
</event>
<event>
 5    1  0.1139158E+001  0.2740061E+03  0.7818608E-02  0.1099008E+00
         -1   -1    0    0    0  501 -0.00000000000E+00  0.00000000000E+00  0.18787818459E+02  0.18787818459E+02  0.00000000000E+00 0.  1.
          1   -1    0    0  501    0  0.00000000000E+00 -0.00000000000E+00 -0.99904252455E+03  0.99904252455E+03  0.00000000000E+00 0.  1.
         35    2    1    2    0    0  0.00000000000E+00  0.00000000000E+00 -0.98025470609E+03  0.10178303430E+04  0.27400605529E+03 0.  0.
         25    1    3    3    0    0  0.55885244989E+02  0.35298344753E+02 -0.48702873338E+03  0.50593094478E+03  0.12000000000E+03 0.  0.
         25    1    3    3    0    0 -0.55885244989E+02 -0.35298344753E+02 -0.49322597271E+03  0.51189939822E+03  0.12000000000E+03 0.  0.
<mgrwt>
<rscale>  0 0.27400606E+03</rscale>
<asrwt>0</asrwt>
<pdfrwt beam="1">  1        1 0.15369889E+00 0.27400606E+03</pdfrwt>
<pdfrwt beam="2">  1       -1 0.28904329E-02 0.27400606E+03</pdfrwt>
<totfact> 0.63788002E+03</totfact>
</mgrwt>
</event>
<event>
 5    1  0.1139158E+001  0.2765266E+03  0.7818608E-02  0.1097601E+00
         -1   -1    0    0    0  501 -0.00000000000E+00  0.00000000000E+00  0.23834142719E+03  0.23834142719E+03  0.00000000000E+00 0. -1.
          1   -1    0    0  501    0  0.00000000000E+00 -0.00000000000E+00 -0.80207367692E+02  0.80207367692E+02  0.00000000000E+00 0. -1.
         35    2    1    2    0    0  0.00000000000E+00  0.00000000000E+00  0.15813405949E+03  0.31854879488E+03  0.27652658814E+03 0.  0.
         25    1    3    3    0    0  0.59356890091E+02 -0.30251634180E+02  0.59848315946E+02  0.14973383951E+03  0.12000000000E+03 0.  0.
         25    1    3    3    0    0 -0.59356890091E+02  0.30251634180E+02  0.98285743548E+02  0.16881495537E+03  0.12000000000E+03 0.  0.
<mgrwt>
<rscale>  0 0.27652659E+03</rscale>
<asrwt>0</asrwt>
<pdfrwt beam="1">  1        1 0.12339595E-01 0.27652659E+03</pdfrwt>
<pdfrwt beam="2">  1       -1 0.36667911E-01 0.27652659E+03</pdfrwt>
<totfact> 0.34669399E+03</totfact>
</mgrwt>
</event>
<event>
 5    1  0.1139158E+001  0.2759037E+03  0.7818608E-02  0.1097948E+00
         -1   -1    0    0    0  501 -0.00000000000E+00  0.00000000000E+00  0.73249274036E+01  0.73249274036E+01  0.00000000000E+00 0. -1.
          1   -1    0    0  501    0  0.00000000000E+00 -0.00000000000E+00 -0.25980744217E+04  0.25980744217E+04  0.00000000000E+00 0. -1.
         35    2    1    2    0    0  0.00000000000E+00  0.00000000000E+00 -0.25907494943E+04  0.26053993491E+04  0.27590365368E+03 0.  0.
         25    1    3    3    0    0 -0.23897967872E+02 -0.20430333731E+02 -0.72547501497E+03  0.73600442169E+03  0.12000000000E+03 0.  0.
         25    1    3    3    0    0  0.23897967872E+02  0.20430333731E+02 -0.18652744793E+04  0.18693949274E+04  0.12000000000E+03 0.  0.
<mgrwt>
<rscale>  0 0.27590365E+03</rscale>
<asrwt>0</asrwt>
<pdfrwt beam="1">  1        1 0.39970319E+00 0.27590365E+03</pdfrwt>
<pdfrwt beam="2">  1       -1 0.11269135E-02 0.27590365E+03</pdfrwt>
<totfact> 0.21570827E+03</totfact>
</mgrwt>
</event>
<event>
 5    1  0.1139158E+001  0.2775276E+03  0.7818608E-02  0.1097047E+00
          1   -1    0    0  501    0  0.00000000000E+00  0.00000000000E+00  0.23295107315E+04  0.23295107315E+04  0.00000000000E+00 0. -1.
         -1   -1    0    0    0  501 -0.00000000000E+00 -0.00000000000E+00 -0.82658523718E+01  0.82658523718E+01  0.00000000000E+00 0. -1.
         35    2    1    2    0    0  0.00000000000E+00  0.00000000000E+00  0.23212448792E+04  0.23377765839E+04  0.27752759723E+03 0.  0.
         25    1    3    3    0    0 -0.23998803447E+02  0.63483261625E+02  0.12936309743E+04  0.13009562501E+04  0.12000000000E+03 0.  0.
         25    1    3    3    0    0  0.23998803447E+02 -0.63483261625E+02  0.10276139049E+04  0.10368203338E+04  0.12000000000E+03 0.  0.
<mgrwt>
<rscale>  0 0.27752760E+03</rscale>
<asrwt>0</asrwt>
<pdfrwt beam="1">  1        1 0.35838574E+00 0.27752760E+03</pdfrwt>
<pdfrwt beam="2">  1       -1 0.12716715E-02 0.27752760E+03</pdfrwt>
<totfact> 0.27283591E+03</totfact>
</mgrwt>
</event>
<event>
 5    1  0.1139158E+001  0.2721106E+03  0.7818608E-02  0.1100078E+00
          1   -1    0    0  501    0  0.00000000000E+00  0.00000000000E+00  0.93245470119E+01  0.93245470119E+01  0.00000000000E+00 0.  1.
         -1   -1    0    0    0  501 -0.00000000000E+00 -0.00000000000E+00 -0.19851953473E+04  0.19851953473E+04  0.00000000000E+00 0.  1.
         35    2    1    2    0    0  0.00000000000E+00  0.00000000000E+00 -0.19758708003E+04  0.19945198943E+04  0.27211061974E+03 0.  0.
         25    1    3    3    0    0 -0.51024984180E+02  0.17634899063E+02 -0.73439287831E+03  0.74608809023E+03  0.12000000000E+03 0.  0.
         25    1    3    3    0    0  0.51024984180E+02 -0.17634899063E+02 -0.12414779220E+04  0.12484318041E+04  0.12000000000E+03 0.  0.
<mgrwt>
<rscale>  0 0.27211062E+03</rscale>
<asrwt>0</asrwt>
<pdfrwt beam="1">  1        1 0.14345451E-02 0.27211062E+03</pdfrwt>
<pdfrwt beam="2">  1       -1 0.30541480E+00 0.27211062E+03</pdfrwt>
<totfact> 0.34635408E+02</totfact>
</mgrwt>
</event>
<event>
 5    1  0.1139158E+001  0.2752289E+03  0.7818608E-02  0.1098324E+00
          1   -1    0    0  501    0  0.00000000000E+00  0.00000000000E+00  0.11449217225E+03  0.11449217225E+03  0.00000000000E+00 0.  1.
         -1   -1    0    0    0  501 -0.00000000000E+00 -0.00000000000E+00 -0.16540633935E+03  0.16540633935E+03  0.00000000000E+00 0.  1.
         35    2    1    2    0    0  0.00000000000E+00  0.00000000000E+00 -0.50914167093E+02  0.27989851160E+03  0.27522885820E+03 0.  0.
         25    1    3    3    0    0 -0.10915889370E+02  0.32487650475E+02 -0.84433483111E+02  0.15067719517E+03  0.12000000000E+03 0.  0.
         25    1    3    3    0    0  0.10915889370E+02 -0.32487650475E+02  0.33519316018E+02  0.12922131643E+03  0.12000000000E+03 0.  0.
<mgrwt>
<rscale>  0 0.27522886E+03</rscale>
<asrwt>0</asrwt>
<pdfrwt beam="1">  1        1 0.17614180E-01 0.27522886E+03</pdfrwt>
<pdfrwt beam="2">  1       -1 0.25447129E-01 0.27522886E+03</pdfrwt>
<totfact> 0.40509223E+03</totfact>
</mgrwt>
</event>
<event>
 5    1  0.1139158E+001  0.2750335E+03  0.7818608E-02  0.1098433E+00
         -1   -1    0    0    0  501 -0.00000000000E+00  0.00000000000E+00  0.74572416977E+02  0.74572416977E+02  0.00000000000E+00 0. -1.
          1   -1    0    0  501    0  0.00000000000E+00 -0.00000000000E+00 -0.25359045573E+03  0.25359045573E+03  0.00000000000E+00 0. -1.
         35    2    1    2    0    0  0.00000000000E+00  0.00000000000E+00 -0.17901803875E+03  0.32816287271E+03  0.27503347583E+03 0.  0.
         25    1    3    3    0    0 -0.16236954396E+02  0.64527603735E+02 -0.10040570438E+03  0.17002575041E+03  0.12000000000E+03 0.  0.
         25    1    3    3    0    0  0.16236954396E+02 -0.64527603735E+02 -0.78612334379E+02  0.15813712230E+03  0.12000000000E+03 0.  0.
<mgrwt>
<rscale>  0 0.27503348E+03</rscale>
<asrwt>0</asrwt>
<pdfrwt beam="1">  1        1 0.39013916E-01 0.27503348E+03</pdfrwt>
<pdfrwt beam="2">  1       -1 0.11472679E-01 0.27503348E+03</pdfrwt>
<totfact> 0.52959695E+03</totfact>
</mgrwt>
</event>
<event>
 4    1  0.1139158E+001  0.2998301E+03  0.7818608E-02  0.1085326E+00
         -1   -1    0    0    0  501 -0.00000000000E+00  0.00000000000E+00  0.22059195878E+02  0.22059195878E+02  0.00000000000E+00 0. -1.
          1   -1    0    0  501    0  0.00000000000E+00 -0.00000000000E+00 -0.10188276611E+04  0.10188276611E+04  0.00000000000E+00 0. -1.
         25    1    1    2    0    0 -0.64981502572E+02  0.12755619859E+02 -0.70924483977E+03  0.72236662731E+03  0.12000000000E+03 0.  0.
         25    1    1    2    0    0  0.64981502572E+02 -0.12755619859E+02 -0.28752362548E+03  0.31852022969E+03  0.12000000000E+03 0.  0.
<mgrwt>
<rscale>  0 0.29983008E+03</rscale>
<asrwt>0</asrwt>
<pdfrwt beam="1">  1        1 0.15674271E+00 0.29983008E+03</pdfrwt>
<pdfrwt beam="2">  1       -1 0.33937227E-02 0.29983008E+03</pdfrwt>
<totfact> 0.48700167E+03</totfact>
</mgrwt>
</event>
<event>
 5    1  0.1139158E+001  0.2732724E+03  0.7818608E-02  0.1099421E+00
          2   -1    0    0  501    0  0.00000000000E+00  0.00000000000E+00  0.37860071104E+03  0.37860071104E+03  0.00000000000E+00 0. -1.
         -2   -1    0    0    0  501 -0.00000000000E+00 -0.00000000000E+00 -0.49311730082E+02  0.49311730082E+02  0.00000000000E+00 0. -1.
         35    2    1    2    0    0  0.00000000000E+00  0.00000000000E+00  0.32928898096E+03  0.42791244112E+03  0.27327243602E+03 0.  0.
         25    1    3    3    0    0 -0.10297703739E+02  0.55955592329E-01  0.26568224552E+03  0.29170721865E+03  0.12000000000E+03 0.  0.
         25    1    3    3    0    0  0.10297703739E+02 -0.55955592329E-01  0.63606735442E+02  0.13620522247E+03  0.12000000000E+03 0.  0.
<mgrwt>
<rscale>  0 0.27327244E+03</rscale>
<asrwt>0</asrwt>
<pdfrwt beam="1">  1        2 0.58246261E-01 0.27327244E+03</pdfrwt>
<pdfrwt beam="2">  1       -2 0.75864203E-02 0.27327244E+03</pdfrwt>
<totfact> 0.86517906E+03</totfact>
</mgrwt>
</event>
<event>
 5    1  0.1139158E+001  0.2751029E+03  0.7818608E-02  0.1098394E+00
          1   -1    0    0  501    0  0.00000000000E+00  0.00000000000E+00  0.20802053486E+02  0.20802053486E+02  0.00000000000E+00 0. -1.
         -1   -1    0    0    0  501 -0.00000000000E+00 -0.00000000000E+00 -0.90954489281E+03  0.90954489281E+03  0.00000000000E+00 0. -1.
         35    2    1    2    0    0  0.00000000000E+00  0.00000000000E+00 -0.88874283932E+03  0.93034694629E+03  0.27510290081E+03 0.  0.
         25    1    3    3    0    0  0.29510952479E+02  0.39672742895E+01 -0.64822964575E+03  0.65991538034E+03  0.12000000000E+03 0.  0.
         25    1    3    3    0    0 -0.29510952479E+02 -0.39672742895E+01 -0.24051319357E+03  0.27043156595E+03  0.12000000000E+03 0.  0.
<mgrwt>
<rscale>  0 0.27510290E+03</rscale>
<asrwt>0</asrwt>
<pdfrwt beam="1">  1        1 0.32003163E-02 0.27510290E+03</pdfrwt>
<pdfrwt beam="2">  1       -1 0.13992997E+00 0.27510290E+03</pdfrwt>
<totfact> 0.14078733E+03</totfact>
</mgrwt>
</event>
<event>
 5    1  0.1139158E+001  0.2755765E+03  0.7818608E-02  0.1098130E+00
          2   -1    0    0  501    0  0.00000000000E+00  0.00000000000E+00  0.21161741285E+04  0.21161741285E+04  0.00000000000E+00 0.  1.
         -2   -1    0    0    0  501 -0.00000000000E+00 -0.00000000000E+00 -0.89716637281E+01  0.89716637281E+01  0.00000000000E+00 0.  1.
         35    2    1    2    0    0  0.00000000000E+00  0.00000000000E+00  0.21072024648E+04  0.21251457923E+04  0.27557650605E+03 0.  0.
         25    1    3    3    0    0 -0.38963487024E+02  0.55072827144E+02  0.10083495893E+04  0.10177033280E+04  0.12000000000E+03 0.  0.
         25    1    3    3    0    0  0.38963487024E+02 -0.55072827144E+02  0.10988528755E+04  0.11074424643E+04  0.12000000000E+03 0.  0.
<mgrwt>
<rscale>  0 0.27557651E+03</rscale>
<asrwt>0</asrwt>
<pdfrwt beam="1">  1        2 0.32556485E+00 0.27557651E+03</pdfrwt>
<pdfrwt beam="2">  1       -2 0.13802576E-02 0.27557651E+03</pdfrwt>
<totfact> 0.85967115E+03</totfact>
</mgrwt>
</event>
<event>
 5    1  0.1139158E+001  0.2749391E+03  0.7818608E-02  0.1098486E+00
         -4   -1    0    0    0  501 -0.00000000000E+00  0.00000000000E+00  0.38811871371E+02  0.38811871371E+02  0.00000000000E+00 0.  1.
          4   -1    0    0  501    0  0.00000000000E+00 -0.00000000000E+00 -0.48690958251E+03  0.48690958251E+03  0.00000000000E+00 0.  1.
         35    2    1    2    0    0  0.00000000000E+00  0.00000000000E+00 -0.44809771114E+03  0.52572145388E+03  0.27493906296E+03 0.  0.
         25    1    3    3    0    0  0.27259303525E+02  0.60835630267E+02 -0.21001989219E+03  0.25090316589E+03  0.12000000000E+03 0.  0.
         25    1    3    3    0    0 -0.27259303525E+02 -0.60835630267E+02 -0.23807781895E+03  0.27481828799E+03  0.12000000000E+03 0.  0.
<mgrwt>
<rscale>  0 0.27493906E+03</rscale>
<asrwt>0</asrwt>
<pdfrwt beam="1">  1        4 0.74909162E-01 0.27493906E+03</pdfrwt>
<pdfrwt beam="2">  1       -4 0.59710575E-02 0.27493906E+03</pdfrwt>
<totfact> 0.55086369E+02</totfact>
</mgrwt>
</event>
<event>
 5    1  0.1139158E+001  0.2749357E+03  0.7818608E-02  0.1098488E+00
          2   -1    0    0  501    0  0.00000000000E+00  0.00000000000E+00  0.47692330204E+02  0.47692330204E+02  0.00000000000E+00 0.  1.
         -2   -1    0    0    0  501 -0.00000000000E+00 -0.00000000000E+00 -0.39623585505E+03  0.39623585505E+03  0.00000000000E+00 0.  1.
         35    2    1    2    0    0  0.00000000000E+00  0.00000000000E+00 -0.34854352484E+03  0.44392818525E+03  0.27493571058E+03 0.  0.
         25    1    3    3    0    0  0.10598102902E+02  0.62655459945E+02 -0.13966429064E+03  0.19479255768E+03  0.12000000000E+03 0.  0.
         25    1    3    3    0    0 -0.10598102902E+02 -0.62655459945E+02 -0.20887923420E+03  0.24913562758E+03  0.12000000000E+03 0.  0.
<mgrwt>
<rscale>  0 0.27493571E+03</rscale>
<asrwt>0</asrwt>
<pdfrwt beam="1">  1        2 0.73372815E-02 0.27493571E+03</pdfrwt>
<pdfrwt beam="2">  1       -2 0.60959363E-01 0.27493571E+03</pdfrwt>
<totfact> 0.24247368E+03</totfact>
</mgrwt>
</event>
<event>
 5    1  0.1139158E+001  0.2763298E+03  0.7818608E-02  0.1097711E+00
          2   -1    0    0  501    0  0.00000000000E+00  0.00000000000E+00  0.40551264325E+04  0.40551264325E+04  0.00000000000E+00 0. -1.
         -2   -1    0    0    0  501 -0.00000000000E+00 -0.00000000000E+00 -0.47075087498E+01  0.47075087498E+01  0.00000000000E+00 0. -1.
         35    2    1    2    0    0  0.00000000000E+00  0.00000000000E+00  0.40504189237E+04  0.40598339412E+04  0.27632982584E+03 0.  0.
         25    1    3    3    0    0  0.10298781988E+02  0.16534227944E+02  0.10606609908E+04  0.10676053498E+04  0.12000000000E+03 0.  0.
         25    1    3    3    0    0 -0.10298781988E+02 -0.16534227944E+02  0.29897579330E+04  0.29922285914E+04  0.12000000000E+03 0.  0.
<mgrwt>
<rscale>  0 0.27632983E+03</rscale>
<asrwt>0</asrwt>
<pdfrwt beam="1">  1        2 0.62386281E+00 0.27632983E+03</pdfrwt>
<pdfrwt beam="2">  1       -2 0.72423536E-03 0.27632983E+03</pdfrwt>
<totfact> 0.13795235E+03</totfact>
</mgrwt>
</event>
<event>
 5    1  0.1139158E+001  0.2750484E+03  0.7818608E-02  0.1098425E+00
         -1   -1    0    0    0  501 -0.00000000000E+00  0.00000000000E+00  0.14960809908E+02  0.14960809908E+02  0.00000000000E+00 0. -1.
          1   -1    0    0  501    0  0.00000000000E+00 -0.00000000000E+00 -0.12641628634E+04  0.12641628634E+04  0.00000000000E+00 0. -1.
         35    2    1    2    0    0  0.00000000000E+00  0.00000000000E+00 -0.12492020535E+04  0.12791236733E+04  0.27504836152E+03 0.  0.
         25    1    3    3    0    0  0.28183010111E+02 -0.49880238362E+02 -0.78774025763E+03  0.79888486889E+03  0.12000000000E+03 0.  0.
         25    1    3    3    0    0 -0.28183010111E+02  0.49880238362E+02 -0.46146179589E+03  0.48023880445E+03  0.12000000000E+03 0.  0.
<mgrwt>
<rscale>  0 0.27504836E+03</rscale>
<asrwt>0</asrwt>
<pdfrwt beam="1">  1        1 0.19448664E+00 0.27504836E+03</pdfrwt>
<pdfrwt beam="2">  1       -1 0.23016625E-02 0.27504836E+03</pdfrwt>
<totfact> 0.57618212E+03</totfact>
</mgrwt>
</event>
<event>
 5    1  0.1139158E+001  0.2752031E+03  0.7818608E-02  0.1098338E+00
          2   -1    0    0  501    0  0.00000000000E+00  0.00000000000E+00  0.46510446048E+03  0.46510446048E+03  0.00000000000E+00 0. -1.
         -2   -1    0    0    0  501 -0.00000000000E+00 -0.00000000000E+00 -0.40709546750E+02  0.40709546750E+02  0.00000000000E+00 0. -1.
         35    2    1    2    0    0  0.00000000000E+00  0.00000000000E+00  0.42439491373E+03  0.50581400723E+03  0.27520313790E+03 0.  0.
         25    1    3    3    0    0 -0.59330828653E+02 -0.13453235115E+02  0.15914880987E+03  0.20839740989E+03  0.12000000000E+03 0.  0.
         25    1    3    3    0    0  0.59330828653E+02  0.13453235115E+02  0.26524610386E+03  0.29741659734E+03  0.12000000000E+03 0.  0.
<mgrwt>
<rscale>  0 0.27520314E+03</rscale>
<asrwt>0</asrwt>
<pdfrwt beam="1">  1        2 0.71554528E-01 0.27520314E+03</pdfrwt>
<pdfrwt beam="2">  1       -2 0.62630075E-02 0.27520314E+03</pdfrwt>
<totfact> 0.92977494E+03</totfact>
</mgrwt>
</event>
<event>
 5    1  0.1139158E+001  0.2731671E+03  0.7818608E-02  0.1099481E+00
         -2   -1    0    0    0  501 -0.00000000000E+00  0.00000000000E+00  0.90362900369E+02  0.90362900369E+02  0.00000000000E+00 0.  1.
          2   -1    0    0  501    0  0.00000000000E+00 -0.00000000000E+00 -0.20644605866E+03  0.20644605866E+03  0.00000000000E+00 0.  1.
         35    2    1    2    0    0  0.00000000000E+00  0.00000000000E+00 -0.11608315829E+03  0.29680895902E+03  0.27316708901E+03 0.  0.
         25    1    3    3    0    0 -0.38834811514E+02  0.11149844865E+02 -0.23980190824E+01  0.12664206300E+03  0.12000000000E+03 0.  0.
         25    1    3    3    0    0  0.38834811514E+02 -0.11149844865E+02 -0.11368513921E+03  0.17016689602E+03  0.12000000000E+03 0.  0.
<mgrwt>
<rscale>  0 0.27316709E+03</rscale>
<asrwt>0</asrwt>
<pdfrwt beam="1">  1        2 0.31760932E-01 0.27316709E+03</pdfrwt>
<pdfrwt beam="2">  1       -2 0.13901985E-01 0.27316709E+03</pdfrwt>
<totfact> 0.63423751E+03</totfact>
</mgrwt>
</event>
<event>
 5    1  0.1139158E+001  0.2741018E+03  0.7818608E-02  0.1098955E+00
         -2   -1    0    0    0  501 -0.00000000000E+00  0.00000000000E+00  0.38966133999E+02  0.38966133999E+02  0.00000000000E+00 0.  1.
          2   -1    0    0  501    0  0.00000000000E+00 -0.00000000000E+00 -0.48203255069E+03  0.48203255069E+03  0.00000000000E+00 0.  1.
         35    2    1    2    0    0  0.00000000000E+00  0.00000000000E+00 -0.44306641669E+03  0.52099868469E+03  0.27410176914E+03 0.  0.
         25    1    3    3    0    0  0.30420745879E+02 -0.13941340267E+02 -0.33011177892E+03  0.35283646259E+03  0.12000000000E+03 0.  0.
         25    1    3    3    0    0 -0.30420745879E+02  0.13941340267E+02 -0.11295463777E+03  0.16816222210E+03  0.12000000000E+03 0.  0.
<mgrwt>
<rscale>  0 0.27410177E+03</rscale>
<asrwt>0</asrwt>
<pdfrwt beam="1">  1        2 0.74158854E-01 0.27410177E+03</pdfrwt>
<pdfrwt beam="2">  1       -2 0.59947899E-02 0.27410177E+03</pdfrwt>
<totfact> 0.95563219E+03</totfact>
</mgrwt>
</event>
<event>
 5    1  0.1139158E+001  0.2746040E+03  0.7818608E-02  0.1098673E+00
          4   -1    0    0  501    0  0.00000000000E+00  0.00000000000E+00  0.80845527157E+02  0.80845527157E+02  0.00000000000E+00 0.  1.
         -4   -1    0    0    0  501 -0.00000000000E+00 -0.00000000000E+00 -0.23318337975E+03  0.23318337975E+03  0.00000000000E+00 0.  1.
         35    2    1    2    0    0  0.00000000000E+00  0.00000000000E+00 -0.15233785259E+03  0.31402890691E+03  0.27460395671E+03 0.  0.
         25    1    3    3    0    0  0.18009088764E+02  0.52819642125E+02 -0.34345022317E+02  0.13672535401E+03  0.12000000000E+03 0.  0.
         25    1    3    3    0    0 -0.18009088764E+02 -0.52819642125E+02 -0.11799283028E+03  0.17730355290E+03  0.12000000000E+03 0.  0.
<mgrwt>
<rscale>  0 0.27460396E+03</rscale>
<asrwt>0</asrwt>
<pdfrwt beam="1">  1        4 0.12437774E-01 0.27460396E+03</pdfrwt>
<pdfrwt beam="2">  1       -4 0.35874365E-01 0.27460396E+03</pdfrwt>
<totfact> 0.73783826E+02</totfact>
</mgrwt>
</event>
<event>
 5    1  0.1139158E+001  0.2748861E+03  0.7818608E-02  0.1098515E+00
          1   -1    0    0  501    0  0.00000000000E+00  0.00000000000E+00  0.10005831790E+04  0.10005831790E+04  0.00000000000E+00 0. -1.
         -1   -1    0    0    0  501 -0.00000000000E+00 -0.00000000000E+00 -0.18879575438E+02  0.18879575438E+02  0.00000000000E+00 0. -1.
         35    2    1    2    0    0  0.00000000000E+00  0.00000000000E+00  0.98170360355E+03  0.10194627544E+04  0.27488605356E+03 0.  0.
         25    1    3    3    0    0 -0.99672616211E+01  0.53465497307E+02  0.63604437051E+03  0.64954626238E+03  0.12000000000E+03 0.  0.
         25    1    3    3    0    0  0.99672616211E+01 -0.53465497307E+02  0.34565923303E+03  0.36991649205E+03  0.12000000000E+03 0.  0.
<mgrwt>
<rscale>  0 0.27488605E+03</rscale>
<asrwt>0</asrwt>
<pdfrwt beam="1">  1        1 0.15393583E+00 0.27488605E+03</pdfrwt>
<pdfrwt beam="2">  1       -1 0.29045508E-02 0.27488605E+03</pdfrwt>
<totfact> 0.63167887E+03</totfact>
</mgrwt>
</event>
<event>
 5    1  0.1139158E+001  0.2779827E+03  0.7818608E-02  0.1096796E+00
          2   -1    0    0  501    0  0.00000000000E+00  0.00000000000E+00  0.74978208047E+03  0.74978208047E+03  0.00000000000E+00 0.  1.
         -2   -1    0    0    0  501 -0.00000000000E+00 -0.00000000000E+00 -0.25765605820E+02  0.25765605820E+02  0.00000000000E+00 0.  1.
         35    2    1    2    0    0  0.00000000000E+00  0.00000000000E+00  0.72401647465E+03  0.77554768629E+03  0.27798265799E+03 0.  0.
         25    1    3    3    0    0  0.37390811033E+02 -0.12029642789E+00  0.52754449031E+03  0.54231105141E+03  0.12000000000E+03 0.  0.
         25    1    3    3    0    0 -0.37390811033E+02  0.12029642789E+00  0.19647198433E+03  0.23323663488E+03  0.12000000000E+03 0.  0.
<mgrwt>
<rscale>  0 0.27798266E+03</rscale>
<asrwt>0</asrwt>
<pdfrwt beam="1">  1        2 0.11535107E+00 0.27798266E+03</pdfrwt>
<pdfrwt beam="2">  1       -2 0.39639399E-02 0.27798266E+03</pdfrwt>
<totfact> 0.10698239E+04</totfact>
</mgrwt>
</event>
<event>
 5    1  0.1139158E+001  0.2740444E+03  0.7818608E-02  0.1098987E+00
         -2   -1    0    0    0  501 -0.00000000000E+00  0.00000000000E+00  0.67834114186E+02  0.67834114186E+02  0.00000000000E+00 0.  1.
          2   -1    0    0  501    0  0.00000000000E+00 -0.00000000000E+00 -0.27677926856E+03  0.27677926856E+03  0.00000000000E+00 0.  1.
         35    2    1    2    0    0  0.00000000000E+00  0.00000000000E+00 -0.20894515438E+03  0.34461338275E+03  0.27404435048E+03 0.  0.
         25    1    3    3    0    0  0.50779508135E+02 -0.31751867033E+02 -0.69165054969E+02  0.15089911973E+03  0.12000000000E+03 0.  0.
         25    1    3    3    0    0 -0.50779508135E+02  0.31751867033E+02 -0.13978009941E+03  0.19371426302E+03  0.12000000000E+03 0.  0.
<mgrwt>
<rscale>  0 0.27404435E+03</rscale>
<asrwt>0</asrwt>
<pdfrwt beam="1">  1        2 0.42581426E-01 0.27404435E+03</pdfrwt>
<pdfrwt beam="2">  1       -2 0.10436018E-01 0.27404435E+03</pdfrwt>
<totfact> 0.73387110E+03</totfact>
</mgrwt>
</event>
<event>
 5    1  0.1139158E+001  0.2753526E+03  0.7818608E-02  0.1098255E+00
         -4   -1    0    0    0  501 -0.00000000000E+00  0.00000000000E+00  0.23211212085E+02  0.23211212085E+02  0.00000000000E+00 0.  1.
          4   -1    0    0  501    0  0.00000000000E+00 -0.00000000000E+00 -0.81662108243E+03  0.81662108243E+03  0.00000000000E+00 0.  1.
         35    2    1    2    0    0  0.00000000000E+00  0.00000000000E+00 -0.79340987034E+03  0.83983229451E+03  0.27535261130E+03 0.  0.
         25    1    3    3    0    0 -0.45296530450E+02  0.48898823160E+02 -0.42896816617E+03  0.45039600149E+03  0.12000000000E+03 0.  0.
         25    1    3    3    0    0  0.45296530450E+02 -0.48898823160E+02 -0.36444170418E+03  0.38943629302E+03  0.12000000000E+03 0.  0.
<mgrwt>
<rscale>  0 0.27535261E+03</rscale>
<asrwt>0</asrwt>
<pdfrwt beam="1">  1        4 0.12563401E+00 0.27535261E+03</pdfrwt>
<pdfrwt beam="2">  1       -4 0.35709559E-02 0.27535261E+03</pdfrwt>
<totfact> 0.37906048E+02</totfact>
</mgrwt>
</event>
<event>
 5    1  0.1139158E+001  0.2745995E+03  0.7818608E-02  0.1098676E+00
         -1   -1    0    0    0  501 -0.00000000000E+00  0.00000000000E+00  0.78493922152E+02  0.78493922152E+02  0.00000000000E+00 0. -1.
          1   -1    0    0  501    0  0.00000000000E+00 -0.00000000000E+00 -0.24016162428E+03  0.24016162428E+03  0.00000000000E+00 0. -1.
         35    2    1    2    0    0  0.00000000000E+00  0.00000000000E+00 -0.16166770213E+03  0.31865554643E+03  0.27459954727E+03 0.  0.
         25    1    3    3    0    0  0.18660514732E+02 -0.10914663788E+02 -0.15407834131E+03  0.19648786211E+03  0.12000000000E+03 0.  0.
         25    1    3    3    0    0 -0.18660514732E+02  0.10914663788E+02 -0.75893608212E+01  0.12216768433E+03  0.12000000000E+03 0.  0.
<mgrwt>
<rscale>  0 0.27459955E+03</rscale>
<asrwt>0</asrwt>
<pdfrwt beam="1">  1        1 0.36947942E-01 0.27459955E+03</pdfrwt>
<pdfrwt beam="2">  1       -1 0.12075988E-01 0.27459955E+03</pdfrwt>
<totfact> 0.52343846E+03</totfact>
</mgrwt>
</event>
<event>
 5    1  0.1139158E+001  0.2746851E+03  0.7818608E-02  0.1098628E+00
          2   -1    0    0  501    0  0.00000000000E+00  0.00000000000E+00  0.13420060927E+04  0.13420060927E+04  0.00000000000E+00 0. -1.
         -2   -1    0    0    0  501 -0.00000000000E+00 -0.00000000000E+00 -0.14055809128E+02  0.14055809128E+02  0.00000000000E+00 0. -1.
         35    2    1    2    0    0  0.00000000000E+00  0.00000000000E+00  0.13279502836E+04  0.13560619019E+04  0.27468513967E+03 0.  0.
         25    1    3    3    0    0 -0.13131619057E+02  0.39732849561E+02  0.40689022338E+03  0.42627548914E+03  0.12000000000E+03 0.  0.
         25    1    3    3    0    0  0.13131619057E+02 -0.39732849561E+02  0.92106006023E+03  0.92978641274E+03  0.12000000000E+03 0.  0.
<mgrwt>
<rscale>  0 0.27468514E+03</rscale>
<asrwt>0</asrwt>
<pdfrwt beam="1">  1        2 0.20646237E+00 0.27468514E+03</pdfrwt>
<pdfrwt beam="2">  1       -2 0.21624332E-02 0.27468514E+03</pdfrwt>
<totfact> 0.11449383E+04</totfact>
</mgrwt>
</event>
<event>
 5    1  0.1139158E+001  0.2751589E+03  0.7818608E-02  0.1098363E+00
         -1   -1    0    0    0  501 -0.00000000000E+00  0.00000000000E+00  0.14579201409E+03  0.14579201409E+03  0.00000000000E+00 0.  1.
          1   -1    0    0  501    0  0.00000000000E+00 -0.00000000000E+00 -0.12982953933E+03  0.12982953933E+03  0.00000000000E+00 0.  1.
         35    2    1    2    0    0  0.00000000000E+00  0.00000000000E+00  0.15962474756E+02  0.27562155343E+03  0.27515893609E+03 0.  0.
         25    1    3    3    0    0  0.65279715810E+02 -0.11160244511E+02 -0.39601173748E+01  0.13711919954E+03  0.12000000000E+03 0.  0.
         25    1    3    3    0    0 -0.65279715810E+02  0.11160244511E+02  0.19922592131E+02  0.13850235388E+03  0.12000000000E+03 0.  0.
<mgrwt>
<rscale>  0 0.27515894E+03</rscale>
<asrwt>0</asrwt>
<pdfrwt beam="1">  1        1 0.19973775E-01 0.27515894E+03</pdfrwt>
<pdfrwt beam="2">  1       -1 0.22429541E-01 0.27515894E+03</pdfrwt>
<totfact> 0.42427052E+03</totfact>
</mgrwt>
</event>
<event>
 5    1  0.1139158E+001  0.2746275E+03  0.7818608E-02  0.1098660E+00
         -1   -1    0    0    0  501 -0.00000000000E+00  0.00000000000E+00  0.84549793341E+02  0.84549793341E+02  0.00000000000E+00 0. -1.
          1   -1    0    0  501    0  0.00000000000E+00 -0.00000000000E+00 -0.22300553650E+03  0.22300553650E+03  0.00000000000E+00 0. -1.
         35    2    1    2    0    0  0.00000000000E+00  0.00000000000E+00 -0.13845574316E+03  0.30755532984E+03  0.27462754432E+03 0.  0.
         25    1    3    3    0    0  0.63062396182E+01  0.23675518408E+02  0.30314503525E+00  0.12247608226E+03  0.12000000000E+03 0.  0.
         25    1    3    3    0    0 -0.63062396182E+01 -0.23675518408E+02 -0.13875888819E+03  0.18507924757E+03  0.12000000000E+03 0.  0.
<mgrwt>
<rscale>  0 0.27462754E+03</rscale>
<asrwt>0</asrwt>
<pdfrwt beam="1">  1        1 0.34308543E-01 0.27462754E+03</pdfrwt>
<pdfrwt beam="2">  1       -1 0.13007661E-01 0.27462754E+03</pdfrwt>
<totfact> 0.51138262E+03</totfact>
</mgrwt>
</event>
<event>
 5    1  0.1139158E+001  0.2751079E+03  0.7818608E-02  0.1098391E+00
         -1   -1    0    0    0  501 -0.00000000000E+00  0.00000000000E+00  0.66390847416E+02  0.66390847416E+02  0.00000000000E+00 0.  1.
          1   -1    0    0  501    0  0.00000000000E+00 -0.00000000000E+00 -0.28499554200E+03  0.28499554200E+03  0.00000000000E+00 0.  1.
         35    2    1    2    0    0  0.00000000000E+00  0.00000000000E+00 -0.21860469458E+03  0.35138638941E+03  0.27510794640E+03 0.  0.
         25    1    3    3    0    0 -0.47583189247E+02 -0.47057626215E+02 -0.11763062573E+03  0.18087438789E+03  0.12000000000E+03 0.  0.
         25    1    3    3    0    0  0.47583189247E+02  0.47057626215E+02 -0.10097406885E+03  0.17051200153E+03  0.12000000000E+03 0.  0.
<mgrwt>
<rscale>  0 0.27510795E+03</rscale>
<asrwt>0</asrwt>
<pdfrwt beam="1">  1        1 0.43845467E-01 0.27510795E+03</pdfrwt>
<pdfrwt beam="2">  1       -1 0.10213977E-01 0.27510795E+03</pdfrwt>
<totfact> 0.54786799E+03</totfact>
</mgrwt>
</event>
<event>
 5    1  0.1139158E+001  0.2776450E+03  0.7818608E-02  0.1096982E+00
         -2   -1    0    0    0  501 -0.00000000000E+00  0.00000000000E+00  0.59273525408E+01  0.59273525408E+01  0.00000000000E+00 0.  1.
          2   -1    0    0  501    0  0.00000000000E+00 -0.00000000000E+00 -0.32513153219E+04  0.32513153219E+04  0.00000000000E+00 0.  1.
         35    2    1    2    0    0  0.00000000000E+00  0.00000000000E+00 -0.32453879693E+04  0.32572426744E+04  0.27764504054E+03 0.  0.
         25    1    3    3    0    0  0.22594996856E+02 -0.41034874156E+02 -0.10156662975E+04  0.10238029218E+04  0.12000000000E+03 0.  0.
         25    1    3    3    0    0 -0.22594996856E+02  0.41034874156E+02 -0.22297216719E+04  0.22334397527E+04  0.12000000000E+03 0.  0.
<mgrwt>
<rscale>  0 0.27764504E+03</rscale>
<asrwt>0</asrwt>
<pdfrwt beam="1">  1        2 0.50020103E+00 0.27764504E+03</pdfrwt>
<pdfrwt beam="2">  1       -2 0.91190281E-03 0.27764504E+03</pdfrwt>
<totfact> 0.35714025E+03</totfact>
</mgrwt>
</event>
<event>
 5    1  0.1139158E+001  0.2751415E+03  0.7818608E-02  0.1098373E+00
         -4   -1    0    0    0  501 -0.00000000000E+00  0.00000000000E+00  0.26584282952E+03  0.26584282952E+03  0.00000000000E+00 0. -1.
          4   -1    0    0  501    0  0.00000000000E+00 -0.00000000000E+00 -0.71191369685E+02  0.71191369685E+02  0.00000000000E+00 0. -1.
         35    2    1    2    0    0  0.00000000000E+00  0.00000000000E+00  0.19465145983E+03  0.33703419920E+03  0.27514152834E+03 0.  0.
         25    1    3    3    0    0  0.12822002426E+02  0.50813693374E+02  0.14899590955E+03  0.19835880682E+03  0.12000000000E+03 0.  0.
         25    1    3    3    0    0 -0.12822002426E+02 -0.50813693374E+02  0.45655550280E+02  0.13867539238E+03  0.12000000000E+03 0.  0.
<mgrwt>
<rscale>  0 0.27514153E+03</rscale>
<asrwt>0</asrwt>
<pdfrwt beam="1">  1        4 0.10952519E-01 0.27514153E+03</pdfrwt>
<pdfrwt beam="2">  1       -4 0.40898896E-01 0.27514153E+03</pdfrwt>
<totfact> 0.70923761E+02</totfact>
</mgrwt>
</event>
<event>
 5    1  0.1139158E+001  0.2754601E+03  0.7818608E-02  0.1098195E+00
          2   -1    0    0  501    0  0.00000000000E+00  0.00000000000E+00  0.14301022633E+03  0.14301022633E+03  0.00000000000E+00 0.  1.
         -2   -1    0    0    0  501 -0.00000000000E+00 -0.00000000000E+00 -0.13264482753E+03  0.13264482753E+03  0.00000000000E+00 0.  1.
         35    2    1    2    0    0  0.00000000000E+00  0.00000000000E+00  0.10365398799E+02  0.27565505387E+03  0.27546010098E+03 0.  0.
         25    1    3    3    0    0 -0.29732515245E+02 -0.13565724730E+02  0.64398183056E+02  0.14005419426E+03  0.12000000000E+03 0.  0.
         25    1    3    3    0    0  0.29732515245E+02  0.13565724730E+02 -0.54032784256E+02  0.13560085960E+03  0.12000000000E+03 0.  0.
<mgrwt>
<rscale>  0 0.27546010E+03</rscale>
<asrwt>0</asrwt>
<pdfrwt beam="1">  1        2 0.22001573E-01 0.27546010E+03</pdfrwt>
<pdfrwt beam="2">  1       -2 0.20406896E-01 0.27546010E+03</pdfrwt>
<totfact> 0.50163741E+03</totfact>
</mgrwt>
</event>
<event>
 5    1  0.1139158E+001  0.2754500E+03  0.7818608E-02  0.1098200E+00
         -2   -1    0    0    0  501 -0.00000000000E+00  0.00000000000E+00  0.57537239684E+01  0.57537239684E+01  0.00000000000E+00 0.  1.
          2   -1    0    0  501    0  0.00000000000E+00 -0.00000000000E+00 -0.32966792054E+04  0.32966792054E+04  0.00000000000E+00 0.  1.
         35    2    1    2    0    0  0.00000000000E+00  0.00000000000E+00 -0.32909254815E+04  0.33024329294E+04  0.27545004745E+03 0.  0.
         25    1    3    3    0    0 -0.58247202652E+02  0.21142286687E+02 -0.13218759335E+04  0.13287572075E+04  0.12000000000E+03 0.  0.
         25    1    3    3    0    0  0.58247202652E+02 -0.21142286687E+02 -0.19690495480E+04  0.19736757219E+04  0.12000000000E+03 0.  0.
<mgrwt>
<rscale>  0 0.27545005E+03</rscale>
<asrwt>0</asrwt>
<pdfrwt beam="1">  1        2 0.50718087E+00 0.27545005E+03</pdfrwt>
<pdfrwt beam="2">  1       -2 0.88518926E-03 0.27545005E+03</pdfrwt>
<totfact> 0.34930358E+03</totfact>
</mgrwt>
</event>
<event>
 5    1  0.1139158E+001  0.2737351E+03  0.7818608E-02  0.1099161E+00
          2   -1    0    0  501    0  0.00000000000E+00  0.00000000000E+00  0.38709293628E+03  0.38709293628E+03  0.00000000000E+00 0. -1.
         -2   -1    0    0    0  501 -0.00000000000E+00 -0.00000000000E+00 -0.48393364358E+02  0.48393364358E+02  0.00000000000E+00 0. -1.
         35    2    1    2    0    0  0.00000000000E+00  0.00000000000E+00  0.33869957192E+03  0.43548630064E+03  0.27373512384E+03 0.  0.
         25    1    3    3    0    0  0.58359998408E+01  0.34047536622E+02  0.80210371200E+02  0.14841494969E+03  0.12000000000E+03 0.  0.
         25    1    3    3    0    0 -0.58359998408E+01 -0.34047536622E+02  0.25848920072E+03  0.28707135094E+03  0.12000000000E+03 0.  0.
<mgrwt>
<rscale>  0 0.27373512E+03</rscale>
<asrwt>0</asrwt>
<pdfrwt beam="1">  1        2 0.59552758E-01 0.27373512E+03</pdfrwt>
<pdfrwt beam="2">  1       -2 0.74451332E-02 0.27373512E+03</pdfrwt>
<totfact> 0.86976368E+03</totfact>
</mgrwt>
</event>
<event>
 5    1  0.1139158E+001  0.2740054E+03  0.7818608E-02  0.1099009E+00
         -1   -1    0    0    0  501 -0.00000000000E+00  0.00000000000E+00  0.95314951132E+02  0.95314951132E+02  0.00000000000E+00 0.  1.
          1   -1    0    0  501    0  0.00000000000E+00 -0.00000000000E+00 -0.19692335734E+03  0.19692335734E+03  0.00000000000E+00 0.  1.
         35    2    1    2    0    0  0.00000000000E+00  0.00000000000E+00 -0.10160840621E+03  0.29223830847E+03  0.27400540273E+03 0.  0.
         25    1    3    3    0    0 -0.39808902005E+02  0.16417064546E+02 -0.10429606558E+03  0.16471775248E+03  0.12000000000E+03 0.  0.
         25    1    3    3    0    0  0.39808902005E+02 -0.16417064546E+02  0.26876593706E+01  0.12752055599E+03  0.12000000000E+03 0.  0.
<mgrwt>
<rscale>  0 0.27400540E+03</rscale>
<asrwt>0</asrwt>
<pdfrwt beam="1">  1        1 0.30295901E-01 0.27400540E+03</pdfrwt>
<pdfrwt beam="2">  1       -1 0.14663839E-01 0.27400540E+03</pdfrwt>
<totfact> 0.49502971E+03</totfact>
</mgrwt>
</event>
<event>
 5    1  0.1139158E+001  0.2745856E+03  0.7818608E-02  0.1098683E+00
         -1   -1    0    0    0  501 -0.00000000000E+00  0.00000000000E+00  0.59853655262E+03  0.59853655262E+03  0.00000000000E+00 0.  1.
          1   -1    0    0  501    0  0.00000000000E+00 -0.00000000000E+00 -0.31492338510E+02  0.31492338510E+02  0.00000000000E+00 0.  1.
         35    2    1    2    0    0  0.00000000000E+00  0.00000000000E+00  0.56704421411E+03  0.63002889113E+03  0.27458562035E+03 0.  0.
         25    1    3    3    0    0 -0.10748650636E+02  0.56415752887E+02  0.20567744491E+03  0.24495199940E+03  0.12000000000E+03 0.  0.
         25    1    3    3    0    0  0.10748650636E+02 -0.56415752887E+02  0.36136676921E+03  0.38507689174E+03  0.12000000000E+03 0.  0.
<mgrwt>
<rscale>  0 0.27458562E+03</rscale>
<asrwt>0</asrwt>
<pdfrwt beam="1">  1        1 0.48449756E-02 0.27458562E+03</pdfrwt>
<pdfrwt beam="2">  1       -1 0.92082538E-01 0.27458562E+03</pdfrwt>
<totfact> 0.20999711E+03</totfact>
</mgrwt>
</event>
<event>
 5    1  0.1139158E+001  0.2778133E+03  0.7818608E-02  0.1096889E+00
          1   -1    0    0  501    0  0.00000000000E+00  0.00000000000E+00  0.59951426937E+03  0.59951426937E+03  0.00000000000E+00 0. -1.
         -1   -1    0    0    0  501 -0.00000000000E+00 -0.00000000000E+00 -0.32184485157E+02  0.32184485157E+02  0.00000000000E+00 0. -1.
         35    2    1    2    0    0  0.00000000000E+00  0.00000000000E+00  0.56732978421E+03  0.63169875452E+03  0.27781330496E+03 0.  0.
         25    1    3    3    0    0 -0.10862960527E+02  0.32429961387E+02  0.42244928343E+03  0.44049188798E+03  0.12000000000E+03 0.  0.
         25    1    3    3    0    0  0.10862960527E+02 -0.32429961387E+02  0.14488050079E+03  0.19120686655E+03  0.12000000000E+03 0.  0.
<mgrwt>
<rscale>  0 0.27781330E+03</rscale>
<asrwt>0</asrwt>
<pdfrwt beam="1">  1        1 0.92232956E-01 0.27781330E+03</pdfrwt>
<pdfrwt beam="2">  1       -1 0.49514597E-02 0.27781330E+03</pdfrwt>
<totfact> 0.62682637E+03</totfact>
</mgrwt>
</event>
<event>
 5    1  0.1139158E+001  0.2748121E+03  0.7818608E-02  0.1098557E+00
          2   -1    0    0  501    0  0.00000000000E+00  0.00000000000E+00  0.55129526911E+03  0.55129526911E+03  0.00000000000E+00 0.  1.
         -2   -1    0    0    0  501 -0.00000000000E+00 -0.00000000000E+00 -0.34247391251E+02  0.34247391251E+02  0.00000000000E+00 0.  1.
         35    2    1    2    0    0  0.00000000000E+00  0.00000000000E+00  0.51704787786E+03  0.58554266036E+03  0.27481211600E+03 0.  0.
         25    1    3    3    0    0 -0.46560678784E+02  0.23178354553E+02  0.16874849843E+03  0.21349751439E+03  0.12000000000E+03 0.  0.
         25    1    3    3    0    0  0.46560678784E+02 -0.23178354553E+02  0.34829937943E+03  0.37204514597E+03  0.12000000000E+03 0.  0.
<mgrwt>
<rscale>  0 0.27481212E+03</rscale>
<asrwt>0</asrwt>
<pdfrwt beam="1">  1        2 0.84814650E-01 0.27481212E+03</pdfrwt>
<pdfrwt beam="2">  1       -2 0.52688298E-02 0.27481212E+03</pdfrwt>
<totfact> 0.10009948E+04</totfact>
</mgrwt>
</event>
<event>
 5    1  0.1139158E+001  0.2752330E+03  0.7818608E-02  0.1098321E+00
          1   -1    0    0  501    0  0.00000000000E+00  0.00000000000E+00  0.16571689575E+02  0.16571689575E+02  0.00000000000E+00 0. -1.
         -1   -1    0    0    0  501 -0.00000000000E+00 -0.00000000000E+00 -0.11428108050E+04  0.11428108050E+04  0.00000000000E+00 0. -1.
         35    2    1    2    0    0  0.00000000000E+00  0.00000000000E+00 -0.11262391155E+04  0.11593824946E+04  0.27523303511E+03 0.  0.
         25    1    3    3    0    0 -0.62606092732E+02 -0.15247845227E+02 -0.64591011711E+03  0.66011506498E+03  0.12000000000E+03 0.  0.
         25    1    3    3    0    0  0.62606092732E+02  0.15247845227E+02 -0.48032899836E+03  0.49926742964E+03  0.12000000000E+03 0.  0.
<mgrwt>
<rscale>  0 0.27523304E+03</rscale>
<asrwt>0</asrwt>
<pdfrwt beam="1">  1        1 0.25494906E-02 0.27523304E+03</pdfrwt>
<pdfrwt beam="2">  1       -1 0.17581706E+00 0.27523304E+03</pdfrwt>
<totfact> 0.10494421E+03</totfact>
</mgrwt>
</event>
<event>
 5    1  0.1139158E+001  0.2754675E+03  0.7818608E-02  0.1098191E+00
         -2   -1    0    0    0  501 -0.00000000000E+00  0.00000000000E+00  0.20664866696E+02  0.20664866696E+02  0.00000000000E+00 0. -1.
          2   -1    0    0  501    0  0.00000000000E+00 -0.00000000000E+00 -0.91801181375E+03  0.91801181375E+03  0.00000000000E+00 0. -1.
         35    2    1    2    0    0  0.00000000000E+00  0.00000000000E+00 -0.89734694705E+03  0.93867668044E+03  0.27546754260E+03 0.  0.
         25    1    3    3    0    0 -0.33959730071E+02 -0.41987943905E+02 -0.58727184201E+03  0.60183425220E+03  0.12000000000E+03 0.  0.
         25    1    3    3    0    0  0.33959730071E+02  0.41987943905E+02 -0.31007510504E+03  0.33684242824E+03  0.12000000000E+03 0.  0.
<mgrwt>
<rscale>  0 0.27546754E+03</rscale>
<asrwt>0</asrwt>
<pdfrwt beam="1">  1        2 0.14123256E+00 0.27546754E+03</pdfrwt>
<pdfrwt beam="2">  1       -2 0.31792109E-02 0.27546754E+03</pdfrwt>
<totfact> 0.11452807E+04</totfact>
</mgrwt>
</event>
<event>
 5    1  0.1139158E+001  0.2777494E+03  0.7818608E-02  0.1096925E+00
         -2   -1    0    0    0  501 -0.00000000000E+00  0.00000000000E+00  0.15465450659E+02  0.15465450659E+02  0.00000000000E+00 0. -1.
          2   -1    0    0  501    0  0.00000000000E+00 -0.00000000000E+00 -0.12470497015E+04  0.12470497015E+04  0.00000000000E+00 0. -1.
         35    2    1    2    0    0  0.00000000000E+00  0.00000000000E+00 -0.12315842509E+04  0.12625151522E+04  0.27774942397E+03 0.  0.
         25    1    3    3    0    0 -0.54526762632E+02 -0.15977523048E+02 -0.43071992541E+03  0.45071953944E+03  0.12000000000E+03 0.  0.
         25    1    3    3    0    0  0.54526762632E+02  0.15977523048E+02 -0.80086432544E+03  0.81179561273E+03  0.12000000000E+03 0.  0.
<mgrwt>
<rscale>  0 0.27774942E+03</rscale>
<asrwt>0</asrwt>
<pdfrwt beam="1">  1        2 0.19185385E+00 0.27774942E+03</pdfrwt>
<pdfrwt beam="2">  1       -2 0.23792995E-02 0.27774942E+03</pdfrwt>
<totfact> 0.11228142E+04</totfact>
</mgrwt>
</event>
<event>
 5    1  0.1139158E+001  0.2758472E+03  0.7818608E-02  0.1097979E+00
          1   -1    0    0  501    0  0.00000000000E+00  0.00000000000E+00  0.43336044567E+03  0.43336044567E+03  0.00000000000E+00 0.  1.
         -1   -1    0    0    0  501 -0.00000000000E+00 -0.00000000000E+00 -0.43896309252E+02  0.43896309252E+02  0.00000000000E+00 0.  1.
         35    2    1    2    0    0  0.00000000000E+00  0.00000000000E+00  0.38946413642E+03  0.47725675492E+03  0.27584723410E+03 0.  0.
         25    1    3    3    0    0 -0.47027195672E+02 -0.40424318803E+02  0.14649716304E+03  0.19926640827E+03  0.12000000000E+03 0.  0.
         25    1    3    3    0    0  0.47027195672E+02  0.40424318803E+02  0.24296697337E+03  0.27799034666E+03  0.12000000000E+03 0.  0.
<mgrwt>
<rscale>  0 0.27584723E+03</rscale>
<asrwt>0</asrwt>
<pdfrwt beam="1">  1        1 0.66670835E-01 0.27584723E+03</pdfrwt>
<pdfrwt beam="2">  1       -1 0.67532786E-02 0.27584723E+03</pdfrwt>
<totfact> 0.60598046E+03</totfact>
</mgrwt>
</event>
<event>
 5    1  0.1139158E+001  0.2769703E+03  0.7818608E-02  0.1097355E+00
          1   -1    0    0  501    0  0.00000000000E+00  0.00000000000E+00  0.10348634687E+04  0.10348634687E+04  0.00000000000E+00 0. -1.
         -1   -1    0    0    0  501 -0.00000000000E+00 -0.00000000000E+00 -0.18532042422E+02  0.18532042422E+02  0.00000000000E+00 0. -1.
         35    2    1    2    0    0  0.00000000000E+00  0.00000000000E+00  0.10163314263E+04  0.10533955111E+04  0.27697027785E+03 0.  0.
         25    1    3    3    0    0  0.52343191123E+02 -0.44863649639E+02  0.48893112083E+03  0.50813993903E+03  0.12000000000E+03 0.  0.
         25    1    3    3    0    0 -0.52343191123E+02  0.44863649639E+02  0.52740030545E+03  0.54525557210E+03  0.12000000000E+03 0.  0.
<mgrwt>
<rscale>  0 0.27697028E+03</rscale>
<asrwt>0</asrwt>
<pdfrwt beam="1">  1        1 0.15920972E+00 0.27697028E+03</pdfrwt>
<pdfrwt beam="2">  1       -1 0.28510843E-02 0.27697028E+03</pdfrwt>
<totfact> 0.61231824E+03</totfact>
</mgrwt>
</event>
<event>
 5    1  0.1139158E+001  0.2748851E+03  0.7818608E-02  0.1098516E+00
          1   -1    0    0  501    0  0.00000000000E+00  0.00000000000E+00  0.23161537216E+03  0.23161537216E+03  0.00000000000E+00 0. -1.
         -1   -1    0    0    0  501 -0.00000000000E+00 -0.00000000000E+00 -0.81559576988E+02  0.81559576988E+02  0.00000000000E+00 0. -1.
         35    2    1    2    0    0  0.00000000000E+00  0.00000000000E+00  0.15005579517E+03  0.31317494915E+03  0.27488507982E+03 0.  0.
         25    1    3    3    0    0 -0.64930440568E+00 -0.85369398366E+01 -0.69146732339E+00  0.12030702002E+03  0.12000000000E+03 0.  0.
         25    1    3    3    0    0  0.64930440568E+00  0.85369398366E+01  0.15074726250E+03  0.19286792913E+03  0.12000000000E+03 0.  0.
<mgrwt>
<rscale>  0 0.27488508E+03</rscale>
<asrwt>0</asrwt>
<pdfrwt beam="1">  1        1 0.35633134E-01 0.27488508E+03</pdfrwt>
<pdfrwt beam="2">  1       -1 0.12547627E-01 0.27488508E+03</pdfrwt>
<totfact> 0.51595521E+03</totfact>
</mgrwt>
</event>
<event>
 5    1  0.1139158E+001  0.2739129E+03  0.7818608E-02  0.1099061E+00
         -2   -1    0    0    0  501 -0.00000000000E+00  0.00000000000E+00  0.98875361200E+02  0.98875361200E+02  0.00000000000E+00 0.  1.
          2   -1    0    0  501    0  0.00000000000E+00 -0.00000000000E+00 -0.18970418229E+03  0.18970418229E+03  0.00000000000E+00 0.  1.
         35    2    1    2    0    0  0.00000000000E+00  0.00000000000E+00 -0.90828821086E+02  0.28857954349E+03  0.27391290254E+03 0.  0.
         25    1    3    3    0    0  0.43337011648E+01 -0.22864152656E+02 -0.11049176179E+03  0.16477250944E+03  0.12000000000E+03 0.  0.
         25    1    3    3    0    0 -0.43337011648E+01  0.22864152656E+02  0.19662940706E+02  0.12380703405E+03  0.12000000000E+03 0.  0.
<mgrwt>
<rscale>  0 0.27391290E+03</rscale>
<asrwt>0</asrwt>
<pdfrwt beam="1">  1        2 0.29185259E-01 0.27391290E+03</pdfrwt>
<pdfrwt beam="2">  1       -2 0.15211594E-01 0.27391290E+03</pdfrwt>
<totfact> 0.60004093E+03</totfact>
</mgrwt>
</event>
<event>
 5    1  0.1139158E+001  0.2752587E+03  0.7818608E-02  0.1098307E+00
         -1   -1    0    0    0  501 -0.00000000000E+00  0.00000000000E+00  0.97998911406E+03  0.97998911406E+03  0.00000000000E+00 0.  1.
          1   -1    0    0  501    0  0.00000000000E+00 -0.00000000000E+00 -0.19328619703E+02  0.19328619703E+02  0.00000000000E+00 0.  1.
         35    2    1    2    0    0  0.00000000000E+00  0.00000000000E+00  0.96066049436E+03  0.99931773376E+03  0.27525869214E+03 0.  0.
         25    1    3    3    0    0 -0.46359838621E+02  0.34372825243E+02  0.35398626734E+03  0.37820233106E+03  0.12000000000E+03 0.  0.
         25    1    3    3    0    0  0.46359838621E+02 -0.34372825243E+02  0.60667422701E+03  0.62111540270E+03  0.12000000000E+03 0.  0.
<mgrwt>
<rscale>  0 0.27525869E+03</rscale>
<asrwt>0</asrwt>
<pdfrwt beam="1">  1        1 0.29736346E-02 0.27525869E+03</pdfrwt>
<pdfrwt beam="2">  1       -1 0.15076752E+00 0.27525869E+03</pdfrwt>
<totfact> 0.12869951E+03</totfact>
</mgrwt>
</event>
<event>
 5    1  0.1139158E+001  0.2734147E+03  0.7818608E-02  0.1099341E+00
          1   -1    0    0  501    0  0.00000000000E+00  0.00000000000E+00  0.77511669265E+03  0.77511669265E+03  0.00000000000E+00 0.  1.
         -1   -1    0    0    0  501 -0.00000000000E+00 -0.00000000000E+00 -0.24111075158E+02  0.24111075158E+02  0.00000000000E+00 0.  1.
         35    2    1    2    0    0  0.00000000000E+00  0.00000000000E+00  0.75100561749E+03  0.79922776781E+03  0.27341468017E+03 0.  0.
         25    1    3    3    0    0  0.28951294456E+02  0.16752526395E+02  0.21092043759E+03  0.24496174310E+03  0.12000000000E+03 0.  0.
         25    1    3    3    0    0 -0.28951294456E+02 -0.16752526395E+02  0.54008517991E+03  0.55426602471E+03  0.12000000000E+03 0.  0.
<mgrwt>
<rscale>  0 0.27341468E+03</rscale>
<asrwt>0</asrwt>
<pdfrwt beam="1">  1        1 0.11924870E+00 0.27341468E+03</pdfrwt>
<pdfrwt beam="2">  1       -1 0.37093968E-02 0.27341468E+03</pdfrwt>
<totfact> 0.66423783E+03</totfact>
</mgrwt>
</event>
<event>
 5    1  0.1139158E+001  0.2745650E+03  0.7818608E-02  0.1098695E+00
          1   -1    0    0  501    0  0.00000000000E+00  0.00000000000E+00  0.17513870885E+04  0.17513870885E+04  0.00000000000E+00 0. -1.
         -1   -1    0    0    0  501 -0.00000000000E+00 -0.00000000000E+00 -0.10760889126E+02  0.10760889126E+02  0.00000000000E+00 0. -1.
         35    2    1    2    0    0  0.00000000000E+00  0.00000000000E+00  0.17406261993E+04  0.17621479776E+04  0.27456498157E+03 0.  0.
         25    1    3    3    0    0 -0.26500881769E+02  0.48765008411E+02  0.11075312594E+04  0.11153949137E+04  0.12000000000E+03 0.  0.
         25    1    3    3    0    0  0.26500881769E+02 -0.48765008411E+02  0.63309493991E+03  0.64675306395E+03  0.12000000000E+03 0.  0.
<mgrwt>
<rscale>  0 0.27456498E+03</rscale>
<asrwt>0</asrwt>
<pdfrwt beam="1">  1        1 0.26944394E+00 0.27456498E+03</pdfrwt>
<pdfrwt beam="2">  1       -1 0.16555228E-02 0.27456498E+03</pdfrwt>
<totfact> 0.44238055E+03</totfact>
</mgrwt>
</event>
<event>
 5    1  0.1139158E+001  0.2770177E+03  0.7818608E-02  0.1097329E+00
         -1   -1    0    0    0  501 -0.00000000000E+00  0.00000000000E+00  0.64646108127E+01  0.64646108127E+01  0.00000000000E+00 0. -1.
          1   -1    0    0  501    0  0.00000000000E+00 -0.00000000000E+00 -0.29676497829E+04  0.29676497829E+04  0.00000000000E+00 0. -1.
         35    2    1    2    0    0  0.00000000000E+00  0.00000000000E+00 -0.29611851721E+04  0.29741143937E+04  0.27701769528E+03 0.  0.
         25    1    3    3    0    0  0.15435653931E+02  0.44965010264E+02 -0.94114962945E+03  0.94995933417E+03  0.12000000000E+03 0.  0.
         25    1    3    3    0    0 -0.15435653931E+02 -0.44965010264E+02 -0.20200355427E+04  0.20241550596E+04  0.12000000000E+03 0.  0.
<mgrwt>
<rscale>  0 0.27701770E+03</rscale>
<asrwt>0</asrwt>
<pdfrwt beam="1">  1        1 0.45656127E+00 0.27701770E+03</pdfrwt>
<pdfrwt beam="2">  1       -1 0.99455602E-03 0.27701770E+03</pdfrwt>
<totfact> 0.14452292E+03</totfact>
</mgrwt>
</event>
<event>
 5    1  0.1139158E+001  0.2744196E+03  0.7818608E-02  0.1098776E+00
         -2   -1    0    0    0  501 -0.00000000000E+00  0.00000000000E+00  0.13760082972E+02  0.13760082972E+02  0.00000000000E+00 0.  1.
          2   -1    0    0  501    0  0.00000000000E+00 -0.00000000000E+00 -0.13681987153E+04  0.13681987153E+04  0.00000000000E+00 0.  1.
         35    2    1    2    0    0  0.00000000000E+00  0.00000000000E+00 -0.13544386323E+04  0.13819587983E+04  0.27441959000E+03 0.  0.
         25    1    3    3    0    0  0.28474301686E+02 -0.24689469916E+02 -0.95333234580E+03  0.96159394618E+03  0.12000000000E+03 0.  0.
         25    1    3    3    0    0 -0.28474301686E+02  0.24689469916E+02 -0.40110628652E+03  0.42036485208E+03  0.12000000000E+03 0.  0.
<mgrwt>
<rscale>  0 0.27441959E+03</rscale>
<asrwt>0</asrwt>
<pdfrwt beam="1">  1        2 0.21049209E+00 0.27441959E+03</pdfrwt>
<pdfrwt beam="2">  1       -2 0.21169360E-02 0.27441959E+03</pdfrwt>
<totfact> 0.11429878E+04</totfact>
</mgrwt>
</event>
<event>
 5    1  0.1139158E+001  0.2740388E+03  0.7818608E-02  0.1098990E+00
         -4   -1    0    0    0  501 -0.00000000000E+00  0.00000000000E+00  0.20899536652E+04  0.20899536652E+04  0.00000000000E+00 0.  1.
          4   -1    0    0  501    0  0.00000000000E+00 -0.00000000000E+00 -0.89831240044E+01  0.89831240044E+01  0.00000000000E+00 0.  1.
         35    2    1    2    0    0  0.00000000000E+00  0.00000000000E+00  0.20809705412E+04  0.20989367893E+04  0.27403877783E+03 0.  0.
         25    1    3    3    0    0 -0.56990331641E+02  0.24660269345E+01  0.78411890468E+03  0.79529644528E+03  0.12000000000E+03 0.  0.
         25    1    3    3    0    0  0.56990331641E+02 -0.24660269345E+01  0.12968516366E+04  0.13036403440E+04  0.12000000000E+03 0.  0.
<mgrwt>
<rscale>  0 0.27403878E+03</rscale>
<asrwt>0</asrwt>
<pdfrwt beam="1">  1        4 0.13820207E-02 0.27403878E+03</pdfrwt>
<pdfrwt beam="2">  1       -4 0.32153095E+00 0.27403878E+03</pdfrwt>
<totfact> 0.90510312E+01</totfact>
</mgrwt>
</event>
<event>
 5    1  0.1139158E+001  0.2760330E+03  0.7818608E-02  0.1097876E+00
          2   -1    0    0  501    0  0.00000000000E+00  0.00000000000E+00  0.12525909219E+04  0.12525909219E+04  0.00000000000E+00 0.  1.
         -2   -1    0    0    0  501 -0.00000000000E+00 -0.00000000000E+00 -0.15207323192E+02  0.15207323192E+02  0.00000000000E+00 0.  1.
         35    2    1    2    0    0  0.00000000000E+00  0.00000000000E+00  0.12373835988E+04  0.12677982451E+04  0.27603300511E+03 0.  0.
         25    1    3    3    0    0  0.71160285579E+01  0.32994436898E+02  0.89077291916E+03  0.89945298056E+03  0.12000000000E+03 0.  0.
         25    1    3    3    0    0 -0.71160285579E+01 -0.32994436898E+02  0.34661067959E+03  0.36834526458E+03  0.12000000000E+03 0.  0.
<mgrwt>
<rscale>  0 0.27603301E+03</rscale>
<asrwt>0</asrwt>
<pdfrwt beam="1">  1        2 0.19270621E+00 0.27603301E+03</pdfrwt>
<pdfrwt beam="2">  1       -2 0.23395892E-02 0.27603301E+03</pdfrwt>
<totfact> 0.11427037E+04</totfact>
</mgrwt>
</event>
<event>
 5    1  0.1139158E+001  0.2752327E+03  0.7818608E-02  0.1098322E+00
         -1   -1    0    0    0  501 -0.00000000000E+00  0.00000000000E+00  0.11927440510E+02  0.11927440510E+02  0.00000000000E+00 0. -1.
          1   -1    0    0  501    0  0.00000000000E+00 -0.00000000000E+00 -0.15877893569E+04  0.15877893569E+04  0.00000000000E+00 0. -1.
         35    2    1    2    0    0  0.00000000000E+00  0.00000000000E+00 -0.15758619164E+04  0.15997167974E+04  0.27523272404E+03 0.  0.
         25    1    3    3    0    0  0.74345760188E+01 -0.29538111588E+02 -0.11371726780E+04  0.11438922469E+04  0.12000000000E+03 0.  0.
         25    1    3    3    0    0 -0.74345760188E+01  0.29538111588E+02 -0.43868923841E+03  0.45582455052E+03  0.12000000000E+03 0.  0.
<mgrwt>
<rscale>  0 0.27523272E+03</rscale>
<asrwt>0</asrwt>
<pdfrwt beam="1">  1        1 0.24427539E+00 0.27523272E+03</pdfrwt>
<pdfrwt beam="2">  1       -1 0.18349901E-02 0.27523272E+03</pdfrwt>
<totfact> 0.48702672E+03</totfact>
</mgrwt>
</event>
<event>
 5    1  0.1139158E+001  0.2741994E+03  0.7818608E-02  0.1098900E+00
         -3   -1    0    0    0  501 -0.00000000000E+00  0.00000000000E+00  0.72590845917E+02  0.72590845917E+02  0.00000000000E+00 0.  1.
          3   -1    0    0  501    0  0.00000000000E+00 -0.00000000000E+00 -0.25893525969E+03  0.25893525969E+03  0.00000000000E+00 0.  1.
         35    2    1    2    0    0  0.00000000000E+00  0.00000000000E+00 -0.18634441377E+03  0.33152610560E+03  0.27419941312E+03 0.  0.
         25    1    3    3    0    0  0.26901127182E+02  0.59920350398E+02 -0.10413483960E+03  0.17192493668E+03  0.12000000000E+03 0.  0.
         25    1    3    3    0    0 -0.26901127182E+02 -0.59920350398E+02 -0.82209574176E+02  0.15960116892E+03  0.12000000000E+03 0.  0.
<mgrwt>
<rscale>  0 0.27419941E+03</rscale>
<asrwt>0</asrwt>
<pdfrwt beam="1">  1        3 0.39836194E-01 0.27419941E+03</pdfrwt>
<pdfrwt beam="2">  1       -3 0.11167823E-01 0.27419941E+03</pdfrwt>
<totfact> 0.97622383E+02</totfact>
</mgrwt>
</event>
<event>
 5    1  0.1139158E+001  0.2747573E+03  0.7818608E-02  0.1098587E+00
         -4   -1    0    0    0  501 -0.00000000000E+00  0.00000000000E+00  0.20085006502E+03  0.20085006502E+03  0.00000000000E+00 0. -1.
          4   -1    0    0  501    0  0.00000000000E+00 -0.00000000000E+00 -0.93965074583E+02  0.93965074583E+02  0.00000000000E+00 0. -1.
         35    2    1    2    0    0  0.00000000000E+00  0.00000000000E+00  0.10688499043E+03  0.29481513960E+03  0.27475728445E+03 0.  0.
         25    1    3    3    0    0 -0.65693335406E+02  0.63282324333E+01  0.41824776188E+02  0.14319557516E+03  0.12000000000E+03 0.  0.
         25    1    3    3    0    0  0.65693335406E+02 -0.63282324333E+01  0.65060214246E+02  0.15161956444E+03  0.12000000000E+03 0.  0.
<mgrwt>
<rscale>  0 0.27475728E+03</rscale>
<asrwt>0</asrwt>
<pdfrwt beam="1">  1        4 0.14456165E-01 0.27475728E+03</pdfrwt>
<pdfrwt beam="2">  1       -4 0.30900010E-01 0.27475728E+03</pdfrwt>
<totfact> 0.75782125E+02</totfact>
</mgrwt>
</event>
<event>
 5    1  0.1139158E+001  0.2701265E+03  0.7818608E-02  0.1101207E+00
         -1   -1    0    0    0  501 -0.00000000000E+00  0.00000000000E+00  0.15051879457E+03  0.15051879457E+03  0.00000000000E+00 0. -1.
          1   -1    0    0  501    0  0.00000000000E+00 -0.00000000000E+00 -0.12119466600E+03  0.12119466600E+03  0.00000000000E+00 0. -1.
         35    2    1    2    0    0  0.00000000000E+00  0.00000000000E+00  0.29324128572E+02  0.27171346056E+03  0.27012645212E+03 0.  0.
         25    1    3    3    0    0 -0.17140032744E+02  0.13871489934E+02 -0.43608201207E+02  0.12956802911E+03  0.12000000000E+03 0.  0.
         25    1    3    3    0    0  0.17140032744E+02 -0.13871489934E+02  0.72932329779E+02  0.14214543145E+03  0.12000000000E+03 0.  0.
<mgrwt>
<rscale>  0 0.27012645E+03</rscale>
<asrwt>0</asrwt>
<pdfrwt beam="1">  1        1 0.18645333E-01 0.27012645E+03</pdfrwt>
<pdfrwt beam="2">  1       -1 0.23156738E-01 0.27012645E+03</pdfrwt>
<totfact> 0.43971361E+03</totfact>
</mgrwt>
</event>
<event>
 5    1  0.1139158E+001  0.2731060E+03  0.7818608E-02  0.1099515E+00
          2   -1    0    0  501    0  0.00000000000E+00  0.00000000000E+00  0.13903344538E+03  0.13903344538E+03  0.00000000000E+00 0.  1.
         -2   -1    0    0    0  501 -0.00000000000E+00 -0.00000000000E+00 -0.13411679054E+03  0.13411679054E+03  0.00000000000E+00 0.  1.
         35    2    1    2    0    0  0.00000000000E+00  0.00000000000E+00  0.49166548385E+01  0.27315023592E+03  0.27310598289E+03 0.  0.
         25    1    3    3    0    0  0.64579662463E+01  0.49833669302E+02 -0.39040799353E+02  0.13582814119E+03  0.12000000000E+03 0.  0.
         25    1    3    3    0    0 -0.64579662463E+01 -0.49833669302E+02  0.43957454192E+02  0.13732209474E+03  0.12000000000E+03 0.  0.
<mgrwt>
<rscale>  0 0.27310598E+03</rscale>
<asrwt>0</asrwt>
<pdfrwt beam="1">  1        2 0.21389761E-01 0.27310598E+03</pdfrwt>
<pdfrwt beam="2">  1       -2 0.20633352E-01 0.27310598E+03</pdfrwt>
<totfact> 0.50807544E+03</totfact>
</mgrwt>
</event>
<event>
 5    1  0.1139158E+001  0.2750802E+03  0.7818608E-02  0.1098407E+00
          2   -1    0    0  501    0  0.00000000000E+00  0.00000000000E+00  0.27842372381E+03  0.27842372381E+03  0.00000000000E+00 0. -1.
         -2   -1    0    0    0  501 -0.00000000000E+00 -0.00000000000E+00 -0.67944221390E+02  0.67944221390E+02  0.00000000000E+00 0. -1.
         35    2    1    2    0    0  0.00000000000E+00  0.00000000000E+00  0.21047950242E+03  0.34636794520E+03  0.27508022925E+03 0.  0.
         25    1    3    3    0    0  0.34039779296E+02 -0.55884356009E+02  0.85916157943E+02  0.16144148790E+03  0.12000000000E+03 0.  0.
         25    1    3    3    0    0 -0.34039779296E+02  0.55884356009E+02  0.12456334448E+03  0.18492645730E+03  0.12000000000E+03 0.  0.
<mgrwt>
<rscale>  0 0.27508023E+03</rscale>
<asrwt>0</asrwt>
<pdfrwt beam="1">  1        2 0.42834418E-01 0.27508023E+03</pdfrwt>
<pdfrwt beam="2">  1       -2 0.10452957E-01 0.27508023E+03</pdfrwt>
<totfact> 0.72742966E+03</totfact>
</mgrwt>
</event>
<event>
 5    1  0.1139158E+001  0.2747403E+03  0.7818608E-02  0.1098597E+00
         -3   -1    0    0    0  501 -0.00000000000E+00  0.00000000000E+00  0.30565513639E+03  0.30565513639E+03  0.00000000000E+00 0. -1.
          3   -1    0    0  501    0  0.00000000000E+00 -0.00000000000E+00 -0.61738080872E+02  0.61738080872E+02  0.00000000000E+00 0. -1.
         35    2    1    2    0    0  0.00000000000E+00  0.00000000000E+00  0.24391705552E+03  0.36739321726E+03  0.27474032488E+03 0.  0.
         25    1    3    3    0    0 -0.86579924774E+01 -0.63888151328E+02  0.14565085462E+03  0.19942624743E+03  0.12000000000E+03 0.  0.
         25    1    3    3    0    0  0.86579924774E+01  0.63888151328E+02  0.98266200894E+02  0.16796696982E+03  0.12000000000E+03 0.  0.
<mgrwt>
<rscale>  0 0.27474032E+03</rscale>
<asrwt>0</asrwt>
<pdfrwt beam="1">  1        3 0.94981665E-02 0.27474032E+03</pdfrwt>
<pdfrwt beam="2">  1       -3 0.47023866E-01 0.27474032E+03</pdfrwt>
<totfact> 0.92300143E+02</totfact>
</mgrwt>
</event>
<event>
 5    1  0.1139158E+001  0.2742371E+03  0.7818608E-02  0.1098879E+00
         -2   -1    0    0    0  501 -0.00000000000E+00  0.00000000000E+00  0.97760676698E+01  0.97760676698E+01  0.00000000000E+00 0. -1.
          2   -1    0    0  501    0  0.00000000000E+00 -0.00000000000E+00 -0.19232173320E+04  0.19232173320E+04  0.00000000000E+00 0. -1.
         35    2    1    2    0    0  0.00000000000E+00  0.00000000000E+00 -0.19134412643E+04  0.19329933997E+04  0.27423714396E+03 0.  0.
         25    1    3    3    0    0 -0.13967872472E+02 -0.25136229088E+02 -0.13781415380E+04  0.13836549535E+04  0.12000000000E+03 0.  0.
         25    1    3    3    0    0  0.13967872472E+02  0.25136229088E+02 -0.53529972631E+03  0.54933844619E+03  0.12000000000E+03 0.  0.
<mgrwt>
<rscale>  0 0.27423714E+03</rscale>
<asrwt>0</asrwt>
<pdfrwt beam="1">  1        2 0.29587940E+00 0.27423714E+03</pdfrwt>
<pdfrwt beam="2">  1       -2 0.15040114E-02 0.27423714E+03</pdfrwt>
<totfact> 0.95814235E+03</totfact>
</mgrwt>
</event>
<event>
 5    1  0.1139158E+001  0.2757647E+03  0.7818608E-02  0.1098025E+00
          2   -1    0    0  501    0  0.00000000000E+00  0.00000000000E+00  0.75365968632E+03  0.75365968632E+03  0.00000000000E+00 0.  1.
         -2   -1    0    0    0  501 -0.00000000000E+00 -0.00000000000E+00 -0.25225640835E+02  0.25225640835E+02  0.00000000000E+00 0.  1.
         35    2    1    2    0    0  0.00000000000E+00  0.00000000000E+00  0.72843404548E+03  0.77888532715E+03  0.27576474437E+03 0.  0.
         25    1    3    3    0    0 -0.28634582808E+02  0.61525522383E+02  0.37126081094E+03  0.39603019958E+03  0.12000000000E+03 0.  0.
         25    1    3    3    0    0  0.28634582808E+02 -0.61525522383E+02  0.35717323454E+03  0.38285512757E+03  0.12000000000E+03 0.  0.
<mgrwt>
<rscale>  0 0.27576474E+03</rscale>
<asrwt>0</asrwt>
<pdfrwt beam="1">  1        2 0.11594763E+00 0.27576474E+03</pdfrwt>
<pdfrwt beam="2">  1       -2 0.38808684E-02 0.27576474E+03</pdfrwt>
<totfact> 0.10970602E+04</totfact>
</mgrwt>
</event>
<event>
 5    1  0.1139158E+001  0.2749199E+03  0.7818608E-02  0.1098496E+00
          4   -1    0    0  501    0  0.00000000000E+00  0.00000000000E+00  0.13464413176E+02  0.13464413176E+02  0.00000000000E+00 0. -1.
         -4   -1    0    0    0  501 -0.00000000000E+00 -0.00000000000E+00 -0.14033468699E+04  0.14033468699E+04  0.00000000000E+00 0. -1.
         35    2    1    2    0    0  0.00000000000E+00  0.00000000000E+00 -0.13898824568E+04  0.14168112831E+04  0.27491993079E+03 0.  0.
         25    1    3    3    0    0  0.20868555547E+02  0.63254972681E+02 -0.73437639847E+03  0.74709128144E+03  0.12000000000E+03 0.  0.
         25    1    3    3    0    0 -0.20868555547E+02 -0.63254972681E+02 -0.65550605829E+03  0.66972000166E+03  0.12000000000E+03 0.  0.
<mgrwt>
<rscale>  0 0.27491993E+03</rscale>
<asrwt>0</asrwt>
<pdfrwt beam="1">  1        4 0.20714483E-02 0.27491993E+03</pdfrwt>
<pdfrwt beam="2">  1       -4 0.21589951E+00 0.27491993E+03</pdfrwt>
<totfact> 0.20621183E+02</totfact>
</mgrwt>
</event>
<event>
 5    1  0.1139158E+001  0.2746416E+03  0.7818608E-02  0.1098652E+00
         -1   -1    0    0    0  501 -0.00000000000E+00  0.00000000000E+00  0.21151210004E+02  0.21151210004E+02  0.00000000000E+00 0. -1.
          1   -1    0    0  501    0  0.00000000000E+00 -0.00000000000E+00 -0.89153290441E+03  0.89153290441E+03  0.00000000000E+00 0. -1.
         35    2    1    2    0    0  0.00000000000E+00  0.00000000000E+00 -0.87038169440E+03  0.91268411441E+03  0.27464158233E+03 0.  0.
         25    1    3    3    0    0  0.40669793249E+02  0.52607313571E+02 -0.41540795446E+03  0.43747609095E+03  0.12000000000E+03 0.  0.
         25    1    3    3    0    0 -0.40669793249E+02 -0.52607313571E+02 -0.45497373994E+03  0.47520802346E+03  0.12000000000E+03 0.  0.
<mgrwt>
<rscale>  0 0.27464158E+03</rscale>
<asrwt>0</asrwt>
<pdfrwt beam="1">  1        1 0.13715893E+00 0.27464158E+03</pdfrwt>
<pdfrwt beam="2">  1       -1 0.32540318E-02 0.27464158E+03</pdfrwt>
<totfact> 0.64768216E+03</totfact>
</mgrwt>
</event>
<event>
 5    1  0.1139158E+001  0.2739218E+03  0.7818608E-02  0.1099056E+00
         -2   -1    0    0    0  501 -0.00000000000E+00  0.00000000000E+00  0.10051885516E+03  0.10051885516E+03  0.00000000000E+00 0.  1.
          2   -1    0    0  501    0  0.00000000000E+00 -0.00000000000E+00 -0.18661461305E+03  0.18661461305E+03  0.00000000000E+00 0.  1.
         35    2    1    2    0    0  0.00000000000E+00  0.00000000000E+00 -0.86095757889E+02  0.28713346822E+03  0.27392179367E+03 0.  0.
         25    1    3    3    0    0  0.57510266427E+02  0.32399456901E+02 -0.41932751145E+02  0.14323236775E+03  0.12000000000E+03 0.  0.
         25    1    3    3    0    0 -0.57510266427E+02 -0.32399456901E+02 -0.44163006744E+02  0.14390110047E+03  0.12000000000E+03 0.  0.
<mgrwt>
<rscale>  0 0.27392179E+03</rscale>
<asrwt>0</asrwt>
<pdfrwt beam="1">  1        2 0.28709940E-01 0.27392179E+03</pdfrwt>
<pdfrwt beam="2">  1       -2 0.15464439E-01 0.27392179E+03</pdfrwt>
<totfact> 0.59453139E+03</totfact>
</mgrwt>
</event>
<event>
 4    1  0.1139158E+001  0.3117987E+03  0.7818608E-02  0.1079487E+00
          2   -1    0    0  501    0  0.00000000000E+00  0.00000000000E+00  0.76440926185E+02  0.76440926185E+02  0.00000000000E+00 0.  1.
         -2   -1    0    0    0  501 -0.00000000000E+00 -0.00000000000E+00 -0.31795282726E+03  0.31795282726E+03  0.00000000000E+00 0.  1.
         25    1    1    2    0    0  0.30158083734E+02  0.84636860315E+02 -0.66620351896E+02  0.16404627221E+03  0.12000000000E+03 0.  0.
         25    1    1    2    0    0 -0.30158083734E+02 -0.84636860315E+02 -0.17489154918E+03  0.23034748124E+03  0.12000000000E+03 0.  0.
<mgrwt>
<rscale>  0 0.31179871E+03</rscale>
<asrwt>0</asrwt>
<pdfrwt beam="1">  1        2 0.11760143E-01 0.31179871E+03</pdfrwt>
<pdfrwt beam="2">  1       -2 0.48915819E-01 0.31179871E+03</pdfrwt>
<totfact> 0.21061566E+03</totfact>
</mgrwt>
</event>
<event>
 5    1  0.1139158E+001  0.2754889E+03  0.7818608E-02  0.1098179E+00
          2   -1    0    0  501    0  0.00000000000E+00  0.00000000000E+00  0.12550998971E+04  0.12550998971E+04  0.00000000000E+00 0. -1.
         -2   -1    0    0    0  501 -0.00000000000E+00 -0.00000000000E+00 -0.15117146333E+02  0.15117146333E+02  0.00000000000E+00 0. -1.
         35    2    1    2    0    0  0.00000000000E+00  0.00000000000E+00  0.12399827508E+04  0.12702170434E+04  0.27548886589E+03 0.  0.
         25    1    3    3    0    0  0.36851085423E+02 -0.50697212694E+02  0.73711947278E+03  0.74944868205E+03  0.12000000000E+03 0.  0.
         25    1    3    3    0    0 -0.36851085423E+02  0.50697212694E+02  0.50286327799E+03  0.52076836139E+03  0.12000000000E+03 0.  0.
<mgrwt>
<rscale>  0 0.27548887E+03</rscale>
<asrwt>0</asrwt>
<pdfrwt beam="1">  1        2 0.19309221E+00 0.27548887E+03</pdfrwt>
<pdfrwt beam="2">  1       -2 0.23257158E-02 0.27548887E+03</pdfrwt>
<totfact> 0.11490043E+04</totfact>
</mgrwt>
</event>
<event>
 5    1  0.1139158E+001  0.2741205E+03  0.7818608E-02  0.1098944E+00
         -1   -1    0    0    0  501 -0.00000000000E+00  0.00000000000E+00  0.61429300171E+02  0.61429300171E+02  0.00000000000E+00 0.  1.
          1   -1    0    0  501    0  0.00000000000E+00 -0.00000000000E+00 -0.30580695094E+03  0.30580695094E+03  0.00000000000E+00 0.  1.
         35    2    1    2    0    0  0.00000000000E+00  0.00000000000E+00 -0.24437765077E+03  0.36723625111E+03  0.27412046245E+03 0.  0.
         25    1    3    3    0    0 -0.34963155261E+02 -0.27266703400E+02 -0.56290113988E+02  0.13976577647E+03  0.12000000000E+03 0.  0.
         25    1    3    3    0    0  0.34963155261E+02  0.27266703400E+02 -0.18808753678E+03  0.22747047464E+03  0.12000000000E+03 0.  0.
<mgrwt>
<rscale>  0 0.27412046E+03</rscale>
<asrwt>0</asrwt>
<pdfrwt beam="1">  1        1 0.47047223E-01 0.27412046E+03</pdfrwt>
<pdfrwt beam="2">  1       -1 0.94506615E-02 0.27412046E+03</pdfrwt>
<totfact> 0.56523443E+03</totfact>
</mgrwt>
</event>
<event>
 5    1  0.1139158E+001  0.2747220E+03  0.7818608E-02  0.1098607E+00
          1   -1    0    0  501    0  0.00000000000E+00  0.00000000000E+00  0.71554641092E+02  0.71554641092E+02  0.00000000000E+00 0. -1.
         -1   -1    0    0    0  501 -0.00000000000E+00 -0.00000000000E+00 -0.26368721559E+03  0.26368721559E+03  0.00000000000E+00 0. -1.
         35    2    1    2    0    0  0.00000000000E+00  0.00000000000E+00 -0.19213257450E+03  0.33524185668E+03  0.27472199819E+03 0.  0.
         25    1    3    3    0    0 -0.32334758193E+02  0.55350656394E+02 -0.11918153085E+03  0.18086865137E+03  0.12000000000E+03 0.  0.
         25    1    3    3    0    0  0.32334758193E+02 -0.55350656394E+02 -0.72951043647E+02  0.15437320532E+03  0.12000000000E+03 0.  0.
<mgrwt>
<rscale>  0 0.27472200E+03</rscale>
<asrwt>0</asrwt>
<pdfrwt beam="1">  1        1 0.11008406E-01 0.27472200E+03</pdfrwt>
<pdfrwt beam="2">  1       -1 0.40567263E-01 0.27472200E+03</pdfrwt>
<totfact> 0.33766592E+03</totfact>
</mgrwt>
</event>
<event>
 5    1  0.1139158E+001  0.2744868E+03  0.7818608E-02  0.1098739E+00
         -1   -1    0    0    0  501 -0.00000000000E+00  0.00000000000E+00  0.94922162627E+01  0.94922162627E+01  0.00000000000E+00 0. -1.
          1   -1    0    0  501    0  0.00000000000E+00 -0.00000000000E+00 -0.19843360279E+04  0.19843360279E+04  0.00000000000E+00 0. -1.
         35    2    1    2    0    0  0.00000000000E+00  0.00000000000E+00 -0.19748438117E+04  0.19938282442E+04  0.27448676992E+03 0.  0.
         25    1    3    3    0    0  0.37730523844E+02  0.13193500298E+02 -0.60045030834E+03  0.61362711288E+03  0.12000000000E+03 0.  0.
         25    1    3    3    0    0 -0.37730523844E+02 -0.13193500298E+02 -0.13743935033E+04  0.13802011313E+04  0.12000000000E+03 0.  0.
<mgrwt>
<rscale>  0 0.27448677E+03</rscale>
<asrwt>0</asrwt>
<pdfrwt beam="1">  1        1 0.30528256E+00 0.27448677E+03</pdfrwt>
<pdfrwt beam="2">  1       -1 0.14603405E-02 0.27448677E+03</pdfrwt>
<totfact> 0.37482309E+03</totfact>
</mgrwt>
</event>
<event>
 5    1  0.1139158E+001  0.2745856E+03  0.7818608E-02  0.1098683E+00
         -1   -1    0    0    0  501 -0.00000000000E+00  0.00000000000E+00  0.50328272785E+03  0.50328272785E+03  0.00000000000E+00 0. -1.
          1   -1    0    0  501    0  0.00000000000E+00 -0.00000000000E+00 -0.37452743874E+02  0.37452743874E+02  0.00000000000E+00 0. -1.
         35    2    1    2    0    0  0.00000000000E+00  0.00000000000E+00  0.46582998397E+03  0.54073547172E+03  0.27458564494E+03 0.  0.
         25    1    3    3    0    0  0.31443101804E+02  0.48136575650E+02  0.29950805865E+03  0.32773598484E+03  0.12000000000E+03 0.  0.
         25    1    3    3    0    0 -0.31443101804E+02 -0.48136575650E+02  0.16632192532E+03  0.21299948688E+03  0.12000000000E+03 0.  0.
<mgrwt>
<rscale>  0 0.27458564E+03</rscale>
<asrwt>0</asrwt>
<pdfrwt beam="1">  1        1 0.57619610E-02 0.27458564E+03</pdfrwt>
<pdfrwt beam="2">  1       -1 0.77428107E-01 0.27458564E+03</pdfrwt>
<totfact> 0.23810239E+03</totfact>
</mgrwt>
</event>
<event>
 5    1  0.1139158E+001  0.2755867E+03  0.7818608E-02  0.1098124E+00
         -2   -1    0    0    0  501 -0.00000000000E+00  0.00000000000E+00  0.51936513926E+03  0.51936513926E+03  0.00000000000E+00 0. -1.
          2   -1    0    0  501    0  0.00000000000E+00 -0.00000000000E+00 -0.36558108988E+02  0.36558108988E+02  0.00000000000E+00 0. -1.
         35    2    1    2    0    0  0.00000000000E+00  0.00000000000E+00  0.48280703027E+03  0.55592324825E+03  0.27558670045E+03 0.  0.
         25    1    3    3    0    0  0.60802725637E+01 -0.51592514332E+02  0.15374656801E+03  0.20183350669E+03  0.12000000000E+03 0.  0.
         25    1    3    3    0    0 -0.60802725637E+01  0.51592514332E+02  0.32906046226E+03  0.35408974155E+03  0.12000000000E+03 0.  0.
<mgrwt>
<rscale>  0 0.27558670E+03</rscale>
<asrwt>0</asrwt>
<pdfrwt beam="1">  1        2 0.56243248E-02 0.27558670E+03</pdfrwt>
<pdfrwt beam="2">  1       -2 0.79902324E-01 0.27558670E+03</pdfrwt>
<totfact> 0.19179171E+03</totfact>
</mgrwt>
</event>
<event>
 5    1  0.1139158E+001  0.2745073E+03  0.7818608E-02  0.1098727E+00
          2   -1    0    0  501    0  0.00000000000E+00  0.00000000000E+00  0.61614091198E+03  0.61614091198E+03  0.00000000000E+00 0.  1.
         -2   -1    0    0    0  501 -0.00000000000E+00 -0.00000000000E+00 -0.30575095986E+02  0.30575095986E+02  0.00000000000E+00 0.  1.
         35    2    1    2    0    0  0.00000000000E+00  0.00000000000E+00  0.58556581600E+03  0.64671600797E+03  0.27450732249E+03 0.  0.
         25    1    3    3    0    0  0.54403391432E+02 -0.34014264950E+02  0.25051616492E+03  0.28508779017E+03  0.12000000000E+03 0.  0.
         25    1    3    3    0    0 -0.54403391432E+02  0.34014264950E+02  0.33504965108E+03  0.36162821780E+03  0.12000000000E+03 0.  0.
<mgrwt>
<rscale>  0 0.27450732E+03</rscale>
<asrwt>0</asrwt>
<pdfrwt beam="1">  1        2 0.94790900E-01 0.27450732E+03</pdfrwt>
<pdfrwt beam="2">  1       -2 0.47038614E-02 0.27450732E+03</pdfrwt>
<totfact> 0.10460177E+04</totfact>
</mgrwt>
</event>
<event>
 5    1  0.1139158E+001  0.2758843E+03  0.7818608E-02  0.1097958E+00
         -2   -1    0    0    0  501 -0.00000000000E+00  0.00000000000E+00  0.75822587306E+02  0.75822587306E+02  0.00000000000E+00 0. -1.
          2   -1    0    0  501    0  0.00000000000E+00 -0.00000000000E+00 -0.25095480999E+03  0.25095480999E+03  0.00000000000E+00 0. -1.
         35    2    1    2    0    0  0.00000000000E+00  0.00000000000E+00 -0.17513222269E+03  0.32677739730E+03  0.27588434526E+03 0.  0.
         25    1    3    3    0    0  0.58798067767E+02  0.72508854792E+01 -0.47956976887E+02  0.14216068284E+03  0.12000000000E+03 0.  0.
         25    1    3    3    0    0 -0.58798067767E+02 -0.72508854792E+01 -0.12717524580E+03  0.18461671446E+03  0.12000000000E+03 0.  0.
<mgrwt>
<rscale>  0 0.27588435E+03</rscale>
<asrwt>0</asrwt>
<pdfrwt beam="1">  1        2 0.38608432E-01 0.27588435E+03</pdfrwt>
<pdfrwt beam="2">  1       -2 0.11665014E-01 0.27588435E+03</pdfrwt>
<totfact> 0.68246480E+03</totfact>
</mgrwt>
</event>
<event>
 5    1  0.1139158E+001  0.2756580E+03  0.7818608E-02  0.1098084E+00
          4   -1    0    0  501    0  0.00000000000E+00  0.00000000000E+00  0.62609122246E+02  0.62609122246E+02  0.00000000000E+00 0. -1.
         -4   -1    0    0    0  501 -0.00000000000E+00 -0.00000000000E+00 -0.30341955011E+03  0.30341955011E+03  0.00000000000E+00 0. -1.
         35    2    1    2    0    0  0.00000000000E+00  0.00000000000E+00 -0.24081042786E+03  0.36602867236E+03  0.27565798885E+03 0.  0.
         25    1    3    3    0    0  0.62324317250E+02  0.20217956817E+02 -0.14354713364E+03  0.19823941554E+03  0.12000000000E+03 0.  0.
         25    1    3    3    0    0 -0.62324317250E+02 -0.20217956817E+02 -0.97263294223E+02  0.16778925681E+03  0.12000000000E+03 0.  0.
<mgrwt>
<rscale>  0 0.27565799E+03</rscale>
<asrwt>0</asrwt>
<pdfrwt beam="1">  1        4 0.96321727E-02 0.27565799E+03</pdfrwt>
<pdfrwt beam="2">  1       -4 0.46679931E-01 0.27565799E+03</pdfrwt>
<totfact> 0.67657738E+02</totfact>
</mgrwt>
</event>
<event>
 5    1  0.1139158E+001  0.2753447E+03  0.7818608E-02  0.1098259E+00
          2   -1    0    0  501    0  0.00000000000E+00  0.00000000000E+00  0.18312960961E+03  0.18312960961E+03  0.00000000000E+00 0. -1.
         -2   -1    0    0    0  501 -0.00000000000E+00 -0.00000000000E+00 -0.10349868634E+03  0.10349868634E+03  0.00000000000E+00 0. -1.
         35    2    1    2    0    0  0.00000000000E+00  0.00000000000E+00  0.79630923270E+02  0.28662829596E+03  0.27534468599E+03 0.  0.
         25    1    3    3    0    0 -0.41806944833E+02  0.31659807642E+02 -0.43926166026E+01  0.13103228280E+03  0.12000000000E+03 0.  0.
         25    1    3    3    0    0  0.41806944833E+02 -0.31659807642E+02  0.84023539873E+02  0.15559601315E+03  0.12000000000E+03 0.  0.
<mgrwt>
<rscale>  0 0.27534469E+03</rscale>
<asrwt>0</asrwt>
<pdfrwt beam="1">  1        2 0.28173786E-01 0.27534469E+03</pdfrwt>
<pdfrwt beam="2">  1       -2 0.15922875E-01 0.27534469E+03</pdfrwt>
<totfact> 0.57838652E+03</totfact>
</mgrwt>
</event>
<event>
 5    1  0.1139158E+001  0.2763327E+03  0.7818608E-02  0.1097709E+00
         -2   -1    0    0    0  501 -0.00000000000E+00  0.00000000000E+00  0.17831720504E+03  0.17831720504E+03  0.00000000000E+00 0. -1.
          2   -1    0    0  501    0  0.00000000000E+00 -0.00000000000E+00 -0.10705608933E+03  0.10705608933E+03  0.00000000000E+00 0. -1.
         35    2    1    2    0    0  0.00000000000E+00  0.00000000000E+00  0.71261115714E+02  0.28537329437E+03  0.27633271708E+03 0.  0.
         25    1    3    3    0    0 -0.24877304170E+02  0.35390327646E+02  0.90457844024E+02  0.15637767455E+03  0.12000000000E+03 0.  0.
         25    1    3    3    0    0  0.24877304170E+02 -0.35390327646E+02 -0.19196728310E+02  0.12899561981E+03  0.12000000000E+03 0.  0.
<mgrwt>
<rscale>  0 0.27633272E+03</rscale>
<asrwt>0</asrwt>
<pdfrwt beam="1">  1        2 0.16470168E-01 0.27633272E+03</pdfrwt>
<pdfrwt beam="2">  1       -2 0.27433416E-01 0.27633272E+03</pdfrwt>
<totfact> 0.41716777E+03</totfact>
</mgrwt>
</event>
<event>
 5    1  0.1139158E+001  0.2742213E+03  0.7818608E-02  0.1098888E+00
          1   -1    0    0  501    0  0.00000000000E+00  0.00000000000E+00  0.12253026036E+02  0.12253026036E+02  0.00000000000E+00 0. -1.
         -1   -1    0    0    0  501 -0.00000000000E+00 -0.00000000000E+00 -0.15342600227E+04  0.15342600227E+04  0.00000000000E+00 0. -1.
         35    2    1    2    0    0  0.00000000000E+00  0.00000000000E+00 -0.15220069967E+04  0.15465130488E+04  0.27422128294E+03 0.  0.
         25    1    3    3    0    0  0.22700984780E+02  0.37490275837E+02 -0.48023751841E+03  0.49693956331E+03  0.12000000000E+03 0.  0.
         25    1    3    3    0    0 -0.22700984780E+02 -0.37490275837E+02 -0.10417694783E+04  0.10495734855E+04  0.12000000000E+03 0.  0.
<mgrwt>
<rscale>  0 0.27422128E+03</rscale>
<asrwt>0</asrwt>
<pdfrwt beam="1">  1        1 0.18850822E-02 0.27422128E+03</pdfrwt>
<pdfrwt beam="2">  1       -1 0.23603984E+00 0.27422128E+03</pdfrwt>
<totfact> 0.63988546E+02</totfact>
</mgrwt>
</event>
<event>
 5    1  0.1139158E+001  0.2759591E+03  0.7818608E-02  0.1097917E+00
          2   -1    0    0  501    0  0.00000000000E+00  0.00000000000E+00  0.15849052424E+02  0.15849052424E+02  0.00000000000E+00 0. -1.
         -2   -1    0    0    0  501 -0.00000000000E+00 -0.00000000000E+00 -0.12012301971E+04  0.12012301971E+04  0.00000000000E+00 0. -1.
         35    2    1    2    0    0  0.00000000000E+00  0.00000000000E+00 -0.11853811447E+04  0.12170792496E+04  0.27595913008E+03 0.  0.
         25    1    3    3    0    0  0.63670164656E+02 -0.26343973469E+01 -0.48670139171E+03  0.50531086928E+03  0.12000000000E+03 0.  0.
         25    1    3    3    0    0 -0.63670164656E+02  0.26343973469E+01 -0.69867975300E+03  0.71176838029E+03  0.12000000000E+03 0.  0.
<mgrwt>
<rscale>  0 0.27595913E+03</rscale>
<asrwt>0</asrwt>
<pdfrwt beam="1">  1        2 0.24383153E-02 0.27595913E+03</pdfrwt>
<pdfrwt beam="2">  1       -2 0.18480468E+00 0.27595913E+03</pdfrwt>
<totfact> 0.75306282E+02</totfact>
</mgrwt>
</event>
<event>
 5    1  0.1139158E+001  0.2753256E+03  0.7818608E-02  0.1098270E+00
         -2   -1    0    0    0  501 -0.00000000000E+00  0.00000000000E+00  0.51203010529E+02  0.51203010529E+02  0.00000000000E+00 0. -1.
          2   -1    0    0  501    0  0.00000000000E+00 -0.00000000000E+00 -0.37011580492E+03  0.37011580492E+03  0.00000000000E+00 0. -1.
         35    2    1    2    0    0  0.00000000000E+00  0.00000000000E+00 -0.31891279439E+03  0.42131881545E+03  0.27532557786E+03 0.  0.
         25    1    3    3    0    0  0.37041812439E+01  0.67215093736E+02 -0.15270699852E+03  0.20555052221E+03  0.12000000000E+03 0.  0.
         25    1    3    3    0    0 -0.37041812439E+01 -0.67215093736E+02 -0.16620579587E+03  0.21576829324E+03  0.12000000000E+03 0.  0.
<mgrwt>
<rscale>  0 0.27532558E+03</rscale>
<asrwt>0</asrwt>
<pdfrwt beam="1">  1        2 0.56940894E-01 0.27532558E+03</pdfrwt>
<pdfrwt beam="2">  1       -2 0.78773860E-02 0.27532558E+03</pdfrwt>
<totfact> 0.83638626E+03</totfact>
</mgrwt>
</event>
<event>
 5    1  0.1139158E+001  0.2743941E+03  0.7818608E-02  0.1098791E+00
          1   -1    0    0  501    0  0.00000000000E+00  0.00000000000E+00  0.34800197215E+03  0.34800197215E+03  0.00000000000E+00 0.  1.
         -1   -1    0    0    0  501 -0.00000000000E+00 -0.00000000000E+00 -0.54088845877E+02  0.54088845877E+02  0.00000000000E+00 0.  1.
         35    2    1    2    0    0  0.00000000000E+00  0.00000000000E+00  0.29391312627E+03  0.40209081803E+03  0.27439405997E+03 0.  0.
         25    1    3    3    0    0  0.24135267551E+02 -0.37895404274E+02  0.75101474901E+02  0.14852206684E+03  0.12000000000E+03 0.  0.
         25    1    3    3    0    0 -0.24135267551E+02  0.37895404274E+02  0.21881165137E+03  0.25356875119E+03  0.12000000000E+03 0.  0.
<mgrwt>
<rscale>  0 0.27439406E+03</rscale>
<asrwt>0</asrwt>
<pdfrwt beam="1">  1        1 0.53538763E-01 0.27439406E+03</pdfrwt>
<pdfrwt beam="2">  1       -1 0.83213611E-02 0.27439406E+03</pdfrwt>
<totfact> 0.58374783E+03</totfact>
</mgrwt>
</event>
<event>
 5    1  0.1139158E+001  0.2748602E+03  0.7818608E-02  0.1098530E+00
          3   -1    0    0  501    0  0.00000000000E+00  0.00000000000E+00  0.19743594376E+04  0.19743594376E+04  0.00000000000E+00 0. -1.
         -3   -1    0    0    0  501 -0.00000000000E+00 -0.00000000000E+00 -0.95661574255E+01  0.95661574255E+01  0.00000000000E+00 0. -1.
         35    2    1    2    0    0  0.00000000000E+00  0.00000000000E+00  0.19647932802E+04  0.19839255951E+04  0.27486020589E+03 0.  0.
         25    1    3    3    0    0  0.34080776498E+02 -0.32564344735E+02  0.13259205310E+04  0.13321738589E+04  0.12000000000E+03 0.  0.
         25    1    3    3    0    0 -0.34080776498E+02  0.32564344735E+02  0.63887274926E+03  0.65175173618E+03  0.12000000000E+03 0.  0.
<mgrwt>
<rscale>  0 0.27486021E+03</rscale>
<asrwt>0</asrwt>
<pdfrwt beam="1">  1        3 0.30374728E+00 0.27486021E+03</pdfrwt>
<pdfrwt beam="2">  1       -3 0.14717181E-02 0.27486021E+03</pdfrwt>
<totfact> 0.16411488E+02</totfact>
</mgrwt>
</event>
<event>
 5    1  0.1139158E+001  0.2752210E+03  0.7818608E-02  0.1098328E+00
          2   -1    0    0  501    0  0.00000000000E+00  0.00000000000E+00  0.12328209682E+03  0.12328209682E+03  0.00000000000E+00 0. -1.
         -2   -1    0    0    0  501 -0.00000000000E+00 -0.00000000000E+00 -0.15360420674E+03  0.15360420674E+03  0.00000000000E+00 0. -1.
         35    2    1    2    0    0  0.00000000000E+00  0.00000000000E+00 -0.30322109917E+02  0.27688630356E+03  0.27522099256E+03 0.  0.
         25    1    3    3    0    0 -0.34993626560E+02  0.47239016727E+02 -0.48231983348E+02  0.14206478388E+03  0.12000000000E+03 0.  0.
         25    1    3    3    0    0  0.34993626560E+02 -0.47239016727E+02  0.17909873432E+02  0.13482151968E+03  0.12000000000E+03 0.  0.
<mgrwt>
<rscale>  0 0.27522099E+03</rscale>
<asrwt>0</asrwt>
<pdfrwt beam="1">  1        2 0.18966477E-01 0.27522099E+03</pdfrwt>
<pdfrwt beam="2">  1       -2 0.23631416E-01 0.27522099E+03</pdfrwt>
<totfact> 0.46094496E+03</totfact>
</mgrwt>
</event>
<event>
 5    1  0.1139158E+001  0.2752208E+03  0.7818608E-02  0.1098328E+00
         -2   -1    0    0    0  501 -0.00000000000E+00  0.00000000000E+00  0.61604519333E+02  0.61604519333E+02  0.00000000000E+00 0.  1.
          2   -1    0    0  501    0  0.00000000000E+00 -0.00000000000E+00 -0.30739008418E+03  0.30739008418E+03  0.00000000000E+00 0.  1.
         35    2    1    2    0    0  0.00000000000E+00  0.00000000000E+00 -0.24578556485E+03  0.36899460352E+03  0.27522077236E+03 0.  0.
         25    1    3    3    0    0  0.62300555192E+02  0.11057714315E+02 -0.91940208341E+02  0.16387993816E+03  0.12000000000E+03 0.  0.
         25    1    3    3    0    0 -0.62300555192E+02 -0.11057714315E+02 -0.15384535651E+03  0.20511466535E+03  0.12000000000E+03 0.  0.
<mgrwt>
<rscale>  0 0.27522077E+03</rscale>
<asrwt>0</asrwt>
<pdfrwt beam="1">  1        2 0.47290781E-01 0.27522077E+03</pdfrwt>
<pdfrwt beam="2">  1       -2 0.94776186E-02 0.27522077E+03</pdfrwt>
<totfact> 0.76411918E+03</totfact>
</mgrwt>
</event>
<event>
 5    1  0.1139158E+001  0.2750617E+03  0.7818608E-02  0.1098417E+00
          2   -1    0    0  501    0  0.00000000000E+00  0.00000000000E+00  0.12500295984E+04  0.12500295984E+04  0.00000000000E+00 0. -1.
         -2   -1    0    0    0  501 -0.00000000000E+00 -0.00000000000E+00 -0.15131424788E+02  0.15131424788E+02  0.00000000000E+00 0. -1.
         35    2    1    2    0    0  0.00000000000E+00  0.00000000000E+00  0.12348981736E+04  0.12651610232E+04  0.27506165746E+03 0.  0.
         25    1    3    3    0    0 -0.51016386584E+01 -0.29642902269E+02  0.34109278141E+03  0.36283469226E+03  0.12000000000E+03 0.  0.
         25    1    3    3    0    0  0.51016386584E+01  0.29642902269E+02  0.89380539220E+03  0.90232633093E+03  0.12000000000E+03 0.  0.
<mgrwt>
<rscale>  0 0.27506166E+03</rscale>
<asrwt>0</asrwt>
<pdfrwt beam="1">  1        2 0.19231216E+00 0.27506166E+03</pdfrwt>
<pdfrwt beam="2">  1       -2 0.23279125E-02 0.27506166E+03</pdfrwt>
<totfact> 0.11548842E+04</totfact>
</mgrwt>
</event>
<event>
 5    1  0.1139158E+001  0.2764138E+03  0.7818608E-02  0.1097664E+00
         -2   -1    0    0    0  501 -0.00000000000E+00  0.00000000000E+00  0.93373405503E+02  0.93373405503E+02  0.00000000000E+00 0.  1.
          2   -1    0    0  501    0  0.00000000000E+00 -0.00000000000E+00 -0.20456734193E+03  0.20456734193E+03  0.00000000000E+00 0.  1.
         35    2    1    2    0    0  0.00000000000E+00  0.00000000000E+00 -0.11119393642E+03  0.29794074743E+03  0.27641381565E+03 0.  0.
         25    1    3    3    0    0 -0.42127616390E+02 -0.65644588312E+01 -0.11347538843E+03  0.17057107598E+03  0.12000000000E+03 0.  0.
         25    1    3    3    0    0  0.42127616390E+02  0.65644588312E+01  0.22814520009E+01  0.12736967145E+03  0.12000000000E+03 0.  0.
<mgrwt>
<rscale>  0 0.27641382E+03</rscale>
<asrwt>0</asrwt>
<pdfrwt beam="1">  1        2 0.31471899E-01 0.27641382E+03</pdfrwt>
<pdfrwt beam="2">  1       -2 0.14365139E-01 0.27641382E+03</pdfrwt>
<totfact> 0.60731513E+03</totfact>
</mgrwt>
</event>
<event>
 5    1  0.1139158E+001  0.2748101E+03  0.7818608E-02  0.1098558E+00
          2   -1    0    0  501    0  0.00000000000E+00  0.00000000000E+00  0.84838531372E+03  0.84838531372E+03  0.00000000000E+00 0.  1.
         -2   -1    0    0    0  501 -0.00000000000E+00 -0.00000000000E+00 -0.22254205776E+02  0.22254205776E+02  0.00000000000E+00 0.  1.
         35    2    1    2    0    0  0.00000000000E+00  0.00000000000E+00  0.82613110794E+03  0.87063951950E+03  0.27481005330E+03 0.  0.
         25    1    3    3    0    0 -0.49261709267E+02  0.36014669486E+02  0.32593457360E+03  0.35264304712E+03  0.12000000000E+03 0.  0.
         25    1    3    3    0    0  0.49261709267E+02 -0.36014669486E+02  0.50019653435E+03  0.51799647237E+03  0.12000000000E+03 0.  0.
<mgrwt>
<rscale>  0 0.27481005E+03</rscale>
<asrwt>0</asrwt>
<pdfrwt beam="1">  1        2 0.13052079E+00 0.27481005E+03</pdfrwt>
<pdfrwt beam="2">  1       -2 0.34237246E-02 0.27481005E+03</pdfrwt>
<totfact> 0.11383762E+04</totfact>
</mgrwt>
</event>
<event>
 5    1  0.1139158E+001  0.2751821E+03  0.7818608E-02  0.1098350E+00
          2   -1    0    0  501    0  0.00000000000E+00  0.00000000000E+00  0.99355610620E+03  0.99355610620E+03  0.00000000000E+00 0. -1.
         -2   -1    0    0    0  501 -0.00000000000E+00 -0.00000000000E+00 -0.19054079925E+02  0.19054079925E+02  0.00000000000E+00 0. -1.
         35    2    1    2    0    0  0.00000000000E+00  0.00000000000E+00  0.97450202628E+03  0.10126101861E+04  0.27518210303E+03 0.  0.
         25    1    3    3    0    0 -0.39252060396E+02  0.37436993054E+02  0.63393752186E+03  0.64747126138E+03  0.12000000000E+03 0.  0.
         25    1    3    3    0    0  0.39252060396E+02 -0.37436993054E+02  0.34056450442E+03  0.36513892475E+03  0.12000000000E+03 0.  0.
<mgrwt>
<rscale>  0 0.27518210E+03</rscale>
<asrwt>0</asrwt>
<pdfrwt beam="1">  1        2 0.15285475E+00 0.27518210E+03</pdfrwt>
<pdfrwt beam="2">  1       -2 0.29313977E-02 0.27518210E+03</pdfrwt>
<totfact> 0.11589455E+04</totfact>
</mgrwt>
</event>
<event>
 5    1  0.1139158E+001  0.2746964E+03  0.7818608E-02  0.1098621E+00
         -1   -1    0    0    0  501 -0.00000000000E+00  0.00000000000E+00  0.53853696259E+03  0.53853696259E+03  0.00000000000E+00 0.  1.
          1   -1    0    0  501    0  0.00000000000E+00 -0.00000000000E+00 -0.35029225303E+02  0.35029225303E+02  0.00000000000E+00 0.  1.
         35    2    1    2    0    0  0.00000000000E+00  0.00000000000E+00  0.50350773729E+03  0.57356618790E+03  0.27469643315E+03 0.  0.
         25    1    3    3    0    0  0.48368445545E+02 -0.38392473227E+02  0.30503037226E+03  0.33355211965E+03  0.12000000000E+03 0.  0.
         25    1    3    3    0    0 -0.48368445545E+02  0.38392473227E+02  0.19847736503E+03  0.24001406824E+03  0.12000000000E+03 0.  0.
<mgrwt>
<rscale>  0 0.27469643E+03</rscale>
<asrwt>0</asrwt>
<pdfrwt beam="1">  1        1 0.53891120E-02 0.27469643E+03</pdfrwt>
<pdfrwt beam="2">  1       -1 0.82851834E-01 0.27469643E+03</pdfrwt>
<totfact> 0.22693009E+03</totfact>
</mgrwt>
</event>
<event>
 5    1  0.1139158E+001  0.2750311E+03  0.7818608E-02  0.1098434E+00
         -2   -1    0    0    0  501 -0.00000000000E+00  0.00000000000E+00  0.38625685342E+02  0.38625685342E+02  0.00000000000E+00 0.  1.
          2   -1    0    0  501    0  0.00000000000E+00 -0.00000000000E+00 -0.48958409571E+03  0.48958409571E+03  0.00000000000E+00 0.  1.
         35    2    1    2    0    0  0.00000000000E+00  0.00000000000E+00 -0.45095841037E+03  0.52820978105E+03  0.27503106173E+03 0.  0.
         25    1    3    3    0    0 -0.18513016737E+02  0.63831592180E+02 -0.24403184571E+03  0.27994418314E+03  0.12000000000E+03 0.  0.
         25    1    3    3    0    0  0.18513016737E+02 -0.63831592180E+02 -0.20692656465E+03  0.24826559791E+03  0.12000000000E+03 0.  0.
<mgrwt>
<rscale>  0 0.27503106E+03</rscale>
<asrwt>0</asrwt>
<pdfrwt beam="1">  1        2 0.75320632E-01 0.27503106E+03</pdfrwt>
<pdfrwt beam="2">  1       -2 0.59424130E-02 0.27503106E+03</pdfrwt>
<totfact> 0.95208499E+03</totfact>
</mgrwt>
</event>
<event>
 5    1  0.1139158E+001  0.2750516E+03  0.7818608E-02  0.1098423E+00
          2   -1    0    0  501    0  0.00000000000E+00  0.00000000000E+00  0.21054459982E+04  0.21054459982E+04  0.00000000000E+00 0. -1.
         -2   -1    0    0    0  501 -0.00000000000E+00 -0.00000000000E+00 -0.89830621433E+01  0.89830621433E+01  0.00000000000E+00 0. -1.
         35    2    1    2    0    0  0.00000000000E+00  0.00000000000E+00  0.20964629360E+04  0.21144290603E+04  0.27505164781E+03 0.  0.
         25    1    3    3    0    0 -0.57406554067E+02  0.22617475251E+02  0.12525323657E+04  0.12597795005E+04  0.12000000000E+03 0.  0.
         25    1    3    3    0    0  0.57406554067E+02 -0.22617475251E+02  0.84393057030E+03  0.85464955984E+03  0.12000000000E+03 0.  0.
<mgrwt>
<rscale>  0 0.27505165E+03</rscale>
<asrwt>0</asrwt>
<pdfrwt beam="1">  1        2 0.32391438E+00 0.27505165E+03</pdfrwt>
<pdfrwt beam="2">  1       -2 0.13820112E-02 0.27505165E+03</pdfrwt>
<totfact> 0.86935126E+03</totfact>
</mgrwt>
</event>
<event>
 5    1  0.1139158E+001  0.2751323E+03  0.7818608E-02  0.1098378E+00
         -1   -1    0    0    0  501 -0.00000000000E+00  0.00000000000E+00  0.49174347870E+02  0.49174347870E+02  0.00000000000E+00 0. -1.
          1   -1    0    0  501    0  0.00000000000E+00 -0.00000000000E+00 -0.38484390491E+03  0.38484390491E+03  0.00000000000E+00 0. -1.
         35    2    1    2    0    0  0.00000000000E+00  0.00000000000E+00 -0.33566955704E+03  0.43401825278E+03  0.27513231766E+03 0.  0.
         25    1    3    3    0    0 -0.66929210386E+02 -0.19736773901E+01 -0.15772979975E+03  0.20919393953E+03  0.12000000000E+03 0.  0.
         25    1    3    3    0    0  0.66929210386E+02  0.19736773901E+01 -0.17793975728E+03  0.22482431325E+03  0.12000000000E+03 0.  0.
<mgrwt>
<rscale>  0 0.27513232E+03</rscale>
<asrwt>0</asrwt>
<pdfrwt beam="1">  1        1 0.59206751E-01 0.27513232E+03</pdfrwt>
<pdfrwt beam="2">  1       -1 0.75652847E-02 0.27513232E+03</pdfrwt>
<totfact> 0.59404415E+03</totfact>
</mgrwt>
</event>
<event>
 5    1  0.1139158E+001  0.2746243E+03  0.7818608E-02  0.1098662E+00
          2   -1    0    0  501    0  0.00000000000E+00  0.00000000000E+00  0.19517473101E+03  0.19517473101E+03  0.00000000000E+00 0. -1.
         -2   -1    0    0    0  501 -0.00000000000E+00 -0.00000000000E+00 -0.96603796904E+02  0.96603796904E+02  0.00000000000E+00 0. -1.
         35    2    1    2    0    0  0.00000000000E+00  0.00000000000E+00  0.98570934109E+02  0.29177852792E+03  0.27462425294E+03 0.  0.
         25    1    3    3    0    0  0.27984278731E+02 -0.57967569511E+02  0.68030096840E+02  0.15222172331E+03  0.12000000000E+03 0.  0.
         25    1    3    3    0    0 -0.27984278731E+02  0.57967569511E+02  0.30540837269E+02  0.13955680461E+03  0.12000000000E+03 0.  0.
<mgrwt>
<rscale>  0 0.27462425E+03</rscale>
<asrwt>0</asrwt>
<pdfrwt beam="1">  1        2 0.30026882E-01 0.27462425E+03</pdfrwt>
<pdfrwt beam="2">  1       -2 0.14862123E-01 0.27462425E+03</pdfrwt>
<totfact> 0.60441752E+03</totfact>
</mgrwt>
</event>
<event>
 5    1  0.1139158E+001  0.2752846E+03  0.7818608E-02  0.1098293E+00
          2   -1    0    0  501    0  0.00000000000E+00  0.00000000000E+00  0.22369299104E+04  0.22369299104E+04  0.00000000000E+00 0. -1.
         -2   -1    0    0    0  501 -0.00000000000E+00 -0.00000000000E+00 -0.84693739570E+01  0.84693739570E+01  0.00000000000E+00 0. -1.
         35    2    1    2    0    0  0.00000000000E+00  0.00000000000E+00  0.22284605365E+04  0.22453992844E+04  0.27528455043E+03 0.  0.
         25    1    3    3    0    0  0.23852409551E+02  0.62661937190E+02  0.10565886052E+04  0.10654928139E+04  0.12000000000E+03 0.  0.
         25    1    3    3    0    0 -0.23852409551E+02 -0.62661937190E+02  0.11718719312E+04  0.11799064704E+04  0.12000000000E+03 0.  0.
<mgrwt>
<rscale>  0 0.27528455E+03</rscale>
<asrwt>0</asrwt>
<pdfrwt beam="1">  1        2 0.34414259E+00 0.27528455E+03</pdfrwt>
<pdfrwt beam="2">  1       -2 0.13029824E-02 0.27528455E+03</pdfrwt>
<totfact> 0.80671178E+03</totfact>
</mgrwt>
</event>
<event>
 5    1  0.1139158E+001  0.2752448E+03  0.7818608E-02  0.1098315E+00
         -1   -1    0    0    0  501 -0.00000000000E+00  0.00000000000E+00  0.11800017051E+02  0.11800017051E+02  0.00000000000E+00 0.  1.
          1   -1    0    0  501    0  0.00000000000E+00 -0.00000000000E+00 -0.16050759167E+04  0.16050759167E+04  0.00000000000E+00 0.  1.
         35    2    1    2    0    0  0.00000000000E+00  0.00000000000E+00 -0.15932758996E+04  0.16168759337E+04  0.27524478695E+03 0.  0.
         25    1    3    3    0    0  0.62219666425E+02 -0.13018267721E+02 -0.92788148439E+03  0.93776586164E+03  0.12000000000E+03 0.  0.
         25    1    3    3    0    0 -0.62219666425E+02  0.13018267721E+02 -0.66539441524E+03  0.67911007209E+03  0.12000000000E+03 0.  0.
<mgrwt>
<rscale>  0 0.27524479E+03</rscale>
<asrwt>0</asrwt>
<pdfrwt beam="1">  1        1 0.24693476E+00 0.27524479E+03</pdfrwt>
<pdfrwt beam="2">  1       -1 0.18153872E-02 0.27524479E+03</pdfrwt>
<totfact> 0.48195542E+03</totfact>
</mgrwt>
</event>
<event>
 5    1  0.1139158E+001  0.2726825E+03  0.7818608E-02  0.1099754E+00
         -1   -1    0    0    0  501 -0.00000000000E+00  0.00000000000E+00  0.16198818638E+03  0.16198818638E+03  0.00000000000E+00 0. -1.
          1   -1    0    0  501    0  0.00000000000E+00 -0.00000000000E+00 -0.11475487198E+03  0.11475487198E+03  0.00000000000E+00 0. -1.
         35    2    1    2    0    0  0.00000000000E+00  0.00000000000E+00  0.47233314399E+02  0.27674305836E+03  0.27268247902E+03 0.  0.
         25    1    3    3    0    0 -0.45028340301E+02 -0.11968819010E+02  0.69209221717E+02  0.14615307191E+03  0.12000000000E+03 0.  0.
         25    1    3    3    0    0  0.45028340301E+02  0.11968819010E+02 -0.21975907318E+02  0.13058998645E+03  0.12000000000E+03 0.  0.
<mgrwt>
<rscale>  0 0.27268248E+03</rscale>
<asrwt>0</asrwt>
<pdfrwt beam="1">  1        1 0.17654596E-01 0.27268248E+03</pdfrwt>
<pdfrwt beam="2">  1       -1 0.24921260E-01 0.27268248E+03</pdfrwt>
<totfact> 0.41805586E+03</totfact>
</mgrwt>
</event>
<event>
 5    1  0.1139158E+001  0.2750063E+03  0.7818608E-02  0.1098448E+00
          1   -1    0    0  501    0  0.00000000000E+00  0.00000000000E+00  0.49178318877E+02  0.49178318877E+02  0.00000000000E+00 0.  1.
         -1   -1    0    0    0  501 -0.00000000000E+00 -0.00000000000E+00 -0.38446037637E+03  0.38446037637E+03  0.00000000000E+00 0.  1.
         35    2    1    2    0    0  0.00000000000E+00  0.00000000000E+00 -0.33528205749E+03  0.43363869525E+03  0.27500629073E+03 0.  0.
         25    1    3    3    0    0 -0.18520716356E+02  0.64337920933E+02 -0.17548249517E+03  0.22288223598E+03  0.12000000000E+03 0.  0.
         25    1    3    3    0    0  0.18520716356E+02 -0.64337920933E+02 -0.15979956232E+03  0.21075645927E+03  0.12000000000E+03 0.  0.
<mgrwt>
<rscale>  0 0.27500629E+03</rscale>
<asrwt>0</asrwt>
<pdfrwt beam="1">  1        1 0.75658952E-02 0.27500629E+03</pdfrwt>
<pdfrwt beam="2">  1       -1 0.59147751E-01 0.27500629E+03</pdfrwt>
<totfact> 0.27956815E+03</totfact>
</mgrwt>
</event>
<event>
 5    1  0.1139158E+001  0.2749201E+03  0.7818608E-02  0.1098496E+00
         -1   -1    0    0    0  501 -0.00000000000E+00  0.00000000000E+00  0.26950680117E+02  0.26950680117E+02  0.00000000000E+00 0. -1.
          1   -1    0    0  501    0  0.00000000000E+00 -0.00000000000E+00 -0.70110551648E+03  0.70110551648E+03  0.00000000000E+00 0. -1.
         35    2    1    2    0    0  0.00000000000E+00  0.00000000000E+00 -0.67415483636E+03  0.72805619660E+03  0.27492013752E+03 0.  0.
         25    1    3    3    0    0  0.15246546174E+02  0.45195513692E+02 -0.21229530587E+03  0.24848418163E+03  0.12000000000E+03 0.  0.
         25    1    3    3    0    0 -0.15246546174E+02 -0.45195513692E+02 -0.46185953049E+03  0.47957201496E+03  0.12000000000E+03 0.  0.
<mgrwt>
<rscale>  0 0.27492014E+03</rscale>
<asrwt>0</asrwt>
<pdfrwt beam="1">  1        1 0.10786236E+00 0.27492014E+03</pdfrwt>
<pdfrwt beam="2">  1       -1 0.41462596E-02 0.27492014E+03</pdfrwt>
<totfact> 0.65371187E+03</totfact>
</mgrwt>
</event>
<event>
 5    1  0.1139158E+001  0.2743193E+03  0.7818608E-02  0.1098833E+00
          1   -1    0    0  501    0  0.00000000000E+00  0.00000000000E+00  0.45216932906E+03  0.45216932906E+03  0.00000000000E+00 0. -1.
         -1   -1    0    0    0  501 -0.00000000000E+00 -0.00000000000E+00 -0.41605571164E+02  0.41605571164E+02  0.00000000000E+00 0. -1.
         35    2    1    2    0    0  0.00000000000E+00  0.00000000000E+00  0.41056375790E+03  0.49377490023E+03  0.27431925342E+03 0.  0.
         25    1    3    3    0    0 -0.36681056402E+02  0.52097263817E+02  0.23910745442E+03  0.27501272617E+03  0.12000000000E+03 0.  0.
         25    1    3    3    0    0  0.36681056402E+02 -0.52097263817E+02  0.17145630348E+03  0.21876217406E+03  0.12000000000E+03 0.  0.
<mgrwt>
<rscale>  0 0.27431925E+03</rscale>
<asrwt>0</asrwt>
<pdfrwt beam="1">  1        1 0.69564509E-01 0.27431925E+03</pdfrwt>
<pdfrwt beam="2">  1       -1 0.64008574E-02 0.27431925E+03</pdfrwt>
<totfact> 0.62177377E+03</totfact>
</mgrwt>
</event>
<event>
 5    1  0.1139158E+001  0.2744701E+03  0.7818608E-02  0.1098748E+00
          2   -1    0    0  501    0  0.00000000000E+00  0.00000000000E+00  0.13486272788E+03  0.13486272788E+03  0.00000000000E+00 0. -1.
         -2   -1    0    0    0  501 -0.00000000000E+00 -0.00000000000E+00 -0.13964913805E+03  0.13964913805E+03  0.00000000000E+00 0. -1.
         35    2    1    2    0    0  0.00000000000E+00  0.00000000000E+00 -0.47864101703E+01  0.27451186593E+03  0.27447013465E+03 0.  0.
         25    1    3    3    0    0  0.20283955444E+02 -0.14963146121E+02 -0.64031538607E+02  0.13833066373E+03  0.12000000000E+03 0.  0.
         25    1    3    3    0    0 -0.20283955444E+02  0.14963146121E+02  0.59245128437E+02  0.13618120220E+03  0.12000000000E+03 0.  0.
<mgrwt>
<rscale>  0 0.27447013E+03</rscale>
<asrwt>0</asrwt>
<pdfrwt beam="1">  1        2 0.20748112E-01 0.27447013E+03</pdfrwt>
<pdfrwt beam="2">  1       -2 0.21484483E-01 0.27447013E+03</pdfrwt>
<totfact> 0.49071132E+03</totfact>
</mgrwt>
</event>
<event>
 5    1  0.1139158E+001  0.2741429E+03  0.7818608E-02  0.1098932E+00
         -3   -1    0    0    0  501 -0.00000000000E+00  0.00000000000E+00  0.21534114164E+03  0.21534114164E+03  0.00000000000E+00 0. -1.
          3   -1    0    0  501    0  0.00000000000E+00 -0.00000000000E+00 -0.87250300884E+02  0.87250300884E+02  0.00000000000E+00 0. -1.
         35    2    1    2    0    0  0.00000000000E+00  0.00000000000E+00  0.12809084076E+03  0.30259144252E+03  0.27414287808E+03 0.  0.
         25    1    3    3    0    0  0.17809083743E+02  0.44561144308E+02  0.11445437760E+03  0.17263447975E+03  0.12000000000E+03 0.  0.
         25    1    3    3    0    0 -0.17809083743E+02 -0.44561144308E+02  0.13636463151E+02  0.12995696277E+03  0.12000000000E+03 0.  0.
<mgrwt>
<rscale>  0 0.27414288E+03</rscale>
<asrwt>0</asrwt>
<pdfrwt beam="1">  1        3 0.13423123E-01 0.27414288E+03</pdfrwt>
<pdfrwt beam="2">  1       -3 0.33129406E-01 0.27414288E+03</pdfrwt>
<totfact> 0.10174423E+03</totfact>
</mgrwt>
</event>
<event>
 4    1  0.1139158E+001  0.2431517E+03  0.7818608E-02  0.1117711E+00
          2   -1    0    0  501    0  0.00000000000E+00  0.00000000000E+00  0.94019759760E+03  0.94019759760E+03  0.00000000000E+00 0.  1.
         -2   -1    0    0    0  501 -0.00000000000E+00 -0.00000000000E+00 -0.15720832955E+02  0.15720832955E+02  0.00000000000E+00 0.  1.
         25    1    1    2    0    0  0.14066836610E+02 -0.10082626959E+02  0.42682244215E+03  0.44370816128E+03  0.12000000000E+03 0.  0.
         25    1    1    2    0    0 -0.14066836610E+02  0.10082626959E+02  0.49765432249E+03  0.51221026928E+03  0.12000000000E+03 0.  0.
<mgrwt>
<rscale>  0 0.24315172E+03</rscale>
<asrwt>0</asrwt>
<pdfrwt beam="1">  1        2 0.14464574E+00 0.24315172E+03</pdfrwt>
<pdfrwt beam="2">  1       -2 0.24185904E-02 0.24315172E+03</pdfrwt>
<totfact> 0.16551924E+04</totfact>
</mgrwt>
</event>
<event>
 5    1  0.1139158E+001  0.2771043E+03  0.7818608E-02  0.1097281E+00
          1   -1    0    0  501    0  0.00000000000E+00  0.00000000000E+00  0.18834049057E+03  0.18834049057E+03  0.00000000000E+00 0.  1.
         -1   -1    0    0    0  501 -0.00000000000E+00 -0.00000000000E+00 -0.10192546892E+03  0.10192546892E+03  0.00000000000E+00 0.  1.
         35    2    1    2    0    0  0.00000000000E+00  0.00000000000E+00  0.86415021648E+02  0.29026595948E+03  0.27710426065E+03 0.  0.
         25    1    3    3    0    0 -0.51237295427E+02  0.44806950540E+02  0.29802428290E+02  0.14114215526E+03  0.12000000000E+03 0.  0.
         25    1    3    3    0    0  0.51237295427E+02 -0.44806950540E+02  0.56612593358E+02  0.14912380422E+03  0.12000000000E+03 0.  0.
<mgrwt>
<rscale>  0 0.27710426E+03</rscale>
<asrwt>0</asrwt>
<pdfrwt beam="1">  1        1 0.28975460E-01 0.27710426E+03</pdfrwt>
<pdfrwt beam="2">  1       -1 0.15680841E-01 0.27710426E+03</pdfrwt>
<totfact> 0.47094677E+03</totfact>
</mgrwt>
</event>
<event>
 5    1  0.1139158E+001  0.2750544E+03  0.7818608E-02  0.1098421E+00
         -2   -1    0    0    0  501 -0.00000000000E+00  0.00000000000E+00  0.74065777148E+02  0.74065777148E+02  0.00000000000E+00 0.  1.
          2   -1    0    0  501    0  0.00000000000E+00 -0.00000000000E+00 -0.25536405787E+03  0.25536405787E+03  0.00000000000E+00 0.  1.
         35    2    1    2    0    0  0.00000000000E+00  0.00000000000E+00 -0.18129828072E+03  0.32942983502E+03  0.27505444844E+03 0.  0.
         25    1    3    3    0    0  0.64796211617E+02 -0.16380658205E+02 -0.82450222904E+02  0.16020272863E+03  0.12000000000E+03 0.  0.
         25    1    3    3    0    0 -0.64796211617E+02  0.16380658205E+02 -0.98848057819E+02  0.16922710639E+03  0.12000000000E+03 0.  0.
<mgrwt>
<rscale>  0 0.27505445E+03</rscale>
<asrwt>0</asrwt>
<pdfrwt beam="1">  1        2 0.39286778E-01 0.27505445E+03</pdfrwt>
<pdfrwt beam="2">  1       -2 0.11394735E-01 0.27505445E+03</pdfrwt>
<totfact> 0.69540693E+03</totfact>
</mgrwt>
</event>
<event>
 5    1  0.1139158E+001  0.2757852E+03  0.7818608E-02  0.1098013E+00
         -1   -1    0    0    0  501 -0.00000000000E+00  0.00000000000E+00  0.49778993209E+02  0.49778993209E+02  0.00000000000E+00 0. -1.
          1   -1    0    0  501    0  0.00000000000E+00 -0.00000000000E+00 -0.38197587158E+03  0.38197587158E+03  0.00000000000E+00 0. -1.
         35    2    1    2    0    0  0.00000000000E+00  0.00000000000E+00 -0.33219687837E+03  0.43175486479E+03  0.27578523758E+03 0.  0.
         25    1    3    3    0    0 -0.67090308990E+02  0.89229845086E+01 -0.17517930302E+03  0.22286434757E+03  0.12000000000E+03 0.  0.
         25    1    3    3    0    0  0.67090308990E+02 -0.89229845086E+01 -0.15701757535E+03  0.20889051722E+03  0.12000000000E+03 0.  0.
<mgrwt>
<rscale>  0 0.27578524E+03</rscale>
<asrwt>0</asrwt>
<pdfrwt beam="1">  1        1 0.58765518E-01 0.27578524E+03</pdfrwt>
<pdfrwt beam="2">  1       -1 0.76583067E-02 0.27578524E+03</pdfrwt>
<totfact> 0.58872441E+03</totfact>
</mgrwt>
</event>
<event>
 5    1  0.1139158E+001  0.2744595E+03  0.7818608E-02  0.1098754E+00
         -1   -1    0    0    0  501 -0.00000000000E+00  0.00000000000E+00  0.44830495467E+02  0.44830495467E+02  0.00000000000E+00 0.  1.
          1   -1    0    0  501    0  0.00000000000E+00 -0.00000000000E+00 -0.42007123695E+03  0.42007123695E+03  0.00000000000E+00 0.  1.
         35    2    1    2    0    0  0.00000000000E+00  0.00000000000E+00 -0.37524074148E+03  0.46490173241E+03  0.27445948104E+03 0.  0.
         25    1    3    3    0    0 -0.41237262699E+02 -0.13115113676E+02 -0.27331608558E+03  0.30161929759E+03  0.12000000000E+03 0.  0.
         25    1    3    3    0    0  0.41237262699E+02  0.13115113676E+02 -0.10192465590E+03  0.16328243482E+03  0.12000000000E+03 0.  0.
<mgrwt>
<rscale>  0 0.27445948E+03</rscale>
<asrwt>0</asrwt>
<pdfrwt beam="1">  1        1 0.64626344E-01 0.27445948E+03</pdfrwt>
<pdfrwt beam="2">  1       -1 0.68969994E-02 0.27445948E+03</pdfrwt>
<totfact> 0.61096368E+03</totfact>
</mgrwt>
</event>
<event>
 5    1  0.1139158E+001  0.2743091E+03  0.7818608E-02  0.1098838E+00
          2   -1    0    0  501    0  0.00000000000E+00  0.00000000000E+00  0.13385695884E+03  0.13385695884E+03  0.00000000000E+00 0.  1.
         -2   -1    0    0    0  501 -0.00000000000E+00 -0.00000000000E+00 -0.14053333770E+03  0.14053333770E+03  0.00000000000E+00 0.  1.
         35    2    1    2    0    0  0.00000000000E+00  0.00000000000E+00 -0.66763788637E+01  0.27439029655E+03  0.27430906074E+03 0.  0.
         25    1    3    3    0    0 -0.49476787026E+02 -0.40924427463E+02  0.13655190074E+02  0.13678167068E+03  0.12000000000E+03 0.  0.
         25    1    3    3    0    0  0.49476787026E+02  0.40924427463E+02 -0.20331568937E+02  0.13760862587E+03  0.12000000000E+03 0.  0.
<mgrwt>
<rscale>  0 0.27430906E+03</rscale>
<asrwt>0</asrwt>
<pdfrwt beam="1">  1        2 0.20593378E-01 0.27430906E+03</pdfrwt>
<pdfrwt beam="2">  1       -2 0.21620514E-01 0.27430906E+03</pdfrwt>
<totfact> 0.48954184E+03</totfact>
</mgrwt>
</event>
<event>
 5    1  0.1139158E+001  0.2734780E+03  0.7818608E-02  0.1099305E+00
         -2   -1    0    0    0  501 -0.00000000000E+00  0.00000000000E+00  0.39984074755E+02  0.39984074755E+02  0.00000000000E+00 0.  1.
          2   -1    0    0  501    0  0.00000000000E+00 -0.00000000000E+00 -0.46762498817E+03  0.46762498817E+03  0.00000000000E+00 0.  1.
         35    2    1    2    0    0  0.00000000000E+00  0.00000000000E+00 -0.42764091341E+03  0.50760906292E+03  0.27347798803E+03 0.  0.
         25    1    3    3    0    0  0.24473594939E+02 -0.58592927474E+02 -0.18357847787E+03  0.22832683928E+03  0.12000000000E+03 0.  0.
         25    1    3    3    0    0 -0.24473594939E+02  0.58592927474E+02 -0.24406243554E+03  0.27928222364E+03  0.12000000000E+03 0.  0.
<mgrwt>
<rscale>  0 0.27347799E+03</rscale>
<asrwt>0</asrwt>
<pdfrwt beam="1">  1        2 0.71942311E-01 0.27347799E+03</pdfrwt>
<pdfrwt beam="2">  1       -2 0.61513957E-02 0.27347799E+03</pdfrwt>
<totfact> 0.94990542E+03</totfact>
</mgrwt>
</event>
<event>
 5    1  0.1139158E+001  0.2754000E+03  0.7818608E-02  0.1098228E+00
         -2   -1    0    0    0  501 -0.00000000000E+00  0.00000000000E+00  0.26212462197E+02  0.26212462197E+02  0.00000000000E+00 0. -1.
          2   -1    0    0  501    0  0.00000000000E+00 -0.00000000000E+00 -0.72336946899E+03  0.72336946899E+03  0.00000000000E+00 0. -1.
         35    2    1    2    0    0  0.00000000000E+00  0.00000000000E+00 -0.69715700680E+03  0.74958193119E+03  0.27540003530E+03 0.  0.
         25    1    3    3    0    0  0.28131158586E+02  0.34693491303E+02 -0.48646075255E+03  0.50302988399E+03  0.12000000000E+03 0.  0.
         25    1    3    3    0    0 -0.28131158586E+02 -0.34693491303E+02 -0.21069625425E+03  0.24655204720E+03  0.12000000000E+03 0.  0.
<mgrwt>
<rscale>  0 0.27540004E+03</rscale>
<asrwt>0</asrwt>
<pdfrwt beam="1">  1        2 0.11128760E+00 0.27540004E+03</pdfrwt>
<pdfrwt beam="2">  1       -2 0.40326868E-02 0.27540004E+03</pdfrwt>
<totfact> 0.10893379E+04</totfact>
</mgrwt>
</event>
<event>
 5    1  0.1139158E+001  0.2749439E+03  0.7818608E-02  0.1098483E+00
          2   -1    0    0  501    0  0.00000000000E+00  0.00000000000E+00  0.26016948373E+03  0.26016948373E+03  0.00000000000E+00 0. -1.
         -2   -1    0    0    0  501 -0.00000000000E+00 -0.00000000000E+00 -0.72639354105E+02  0.72639354105E+02  0.00000000000E+00 0. -1.
         35    2    1    2    0    0  0.00000000000E+00  0.00000000000E+00  0.18753012963E+03  0.33280883784E+03  0.27494394524E+03 0.  0.
         25    1    3    3    0    0 -0.31889150756E+02  0.50041495777E+02  0.55920518594E+02  0.14507988708E+03  0.12000000000E+03 0.  0.
         25    1    3    3    0    0  0.31889150756E+02 -0.50041495777E+02  0.13160961103E+03  0.18772895076E+03  0.12000000000E+03 0.  0.
<mgrwt>
<rscale>  0 0.27494395E+03</rscale>
<asrwt>0</asrwt>
<pdfrwt beam="1">  1        2 0.40026074E-01 0.27494395E+03</pdfrwt>
<pdfrwt beam="2">  1       -2 0.11175285E-01 0.27494395E+03</pdfrwt>
<totfact> 0.70317564E+03</totfact>
</mgrwt>
</event>
<event>
 5    1  0.1139158E+001  0.2743796E+03  0.7818608E-02  0.1098799E+00
          2   -1    0    0  501    0  0.00000000000E+00  0.00000000000E+00  0.32556379307E+03  0.32556379307E+03  0.00000000000E+00 0.  1.
         -2   -1    0    0    0  501 -0.00000000000E+00 -0.00000000000E+00 -0.57810595303E+02  0.57810595303E+02  0.00000000000E+00 0.  1.
         35    2    1    2    0    0  0.00000000000E+00  0.00000000000E+00  0.26775319776E+03  0.38337438837E+03  0.27437956692E+03 0.  0.
         25    1    3    3    0    0 -0.30972872489E+02 -0.57183232083E+02  0.15322704153E+03  0.20520177172E+03  0.12000000000E+03 0.  0.
         25    1    3    3    0    0  0.30972872489E+02  0.57183232083E+02  0.11452615624E+03  0.17817261665E+03  0.12000000000E+03 0.  0.
<mgrwt>
<rscale>  0 0.27437957E+03</rscale>
<asrwt>0</asrwt>
<pdfrwt beam="1">  1        2 0.50086736E-01 0.27437957E+03</pdfrwt>
<pdfrwt beam="2">  1       -2 0.88939379E-02 0.27437957E+03</pdfrwt>
<totfact> 0.79404729E+03</totfact>
</mgrwt>
</event>
<event>
 5    1  0.1139158E+001  0.2752926E+03  0.7818608E-02  0.1098288E+00
          1   -1    0    0  501    0  0.00000000000E+00  0.00000000000E+00  0.21066725757E+04  0.21066725757E+04  0.00000000000E+00 0.  1.
         -1   -1    0    0    0  501 -0.00000000000E+00 -0.00000000000E+00 -0.89935705243E+01  0.89935705243E+01  0.00000000000E+00 0.  1.
         35    2    1    2    0    0  0.00000000000E+00  0.00000000000E+00  0.20976790052E+04  0.21156661462E+04  0.27529263253E+03 0.  0.
         25    1    3    3    0    0  0.89016586030E+01  0.26758569239E+02  0.15195354145E+04  0.15245271846E+04  0.12000000000E+03 0.  0.
         25    1    3    3    0    0 -0.89016586030E+01 -0.26758569239E+02  0.57814359066E+03  0.59113896164E+03  0.12000000000E+03 0.  0.
<mgrwt>
<rscale>  0 0.27529263E+03</rscale>
<asrwt>0</asrwt>
<pdfrwt beam="1">  1        1 0.32410308E+00 0.27529263E+03</pdfrwt>
<pdfrwt beam="2">  1       -1 0.13836279E-02 0.27529263E+03</pdfrwt>
<totfact> 0.33759748E+03</totfact>
</mgrwt>
</event>
<event>
 5    1  0.1139158E+001  0.2751672E+03  0.7818608E-02  0.1098358E+00
         -2   -1    0    0    0  501 -0.00000000000E+00  0.00000000000E+00  0.40818101319E+02  0.40818101319E+02  0.00000000000E+00 0.  1.
          2   -1    0    0  501    0  0.00000000000E+00 -0.00000000000E+00 -0.46374650286E+03  0.46374650286E+03  0.00000000000E+00 0.  1.
         35    2    1    2    0    0  0.00000000000E+00  0.00000000000E+00 -0.42292840155E+03  0.50456460418E+03  0.27516723453E+03 0.  0.
         25    1    3    3    0    0  0.47161776644E+02 -0.39022256893E+02 -0.16017785700E+03  0.20929384985E+03  0.12000000000E+03 0.  0.
         25    1    3    3    0    0 -0.47161776644E+02  0.39022256893E+02 -0.26275054454E+03  0.29527075434E+03  0.12000000000E+03 0.  0.
<mgrwt>
<rscale>  0 0.27516723E+03</rscale>
<asrwt>0</asrwt>
<pdfrwt beam="1">  1        2 0.71345621E-01 0.27516723E+03</pdfrwt>
<pdfrwt beam="2">  1       -2 0.62797074E-02 0.27516723E+03</pdfrwt>
<totfact> 0.92896822E+03</totfact>
</mgrwt>
</event>
<event>
 5    1  0.1139158E+001  0.2710866E+03  0.7818608E-02  0.1100659E+00
         -1   -1    0    0    0  501 -0.00000000000E+00  0.00000000000E+00  0.12801641022E+03  0.12801641022E+03  0.00000000000E+00 0. -1.
          1   -1    0    0  501    0  0.00000000000E+00 -0.00000000000E+00 -0.14351277494E+03  0.14351277494E+03  0.00000000000E+00 0. -1.
         35    2    1    2    0    0  0.00000000000E+00  0.00000000000E+00 -0.15496364724E+02  0.27152918516E+03  0.27108663020E+03 0.  0.
         25    1    3    3    0    0  0.24403857634E+02  0.50380495057E+02 -0.36747955971E+02  0.13741963039E+03  0.12000000000E+03 0.  0.
         25    1    3    3    0    0 -0.24403857634E+02 -0.50380495057E+02  0.21251591247E+02  0.13410955477E+03  0.12000000000E+03 0.  0.
<mgrwt>
<rscale>  0 0.27108663E+03</rscale>
<asrwt>0</asrwt>
<pdfrwt beam="1">  1        1 0.22078888E-01 0.27108663E+03</pdfrwt>
<pdfrwt beam="2">  1       -1 0.19694832E-01 0.27108663E+03</pdfrwt>
<totfact> 0.46107077E+03</totfact>
</mgrwt>
</event>
<event>
 5    1  0.1139158E+001  0.2743226E+03  0.7818608E-02  0.1098831E+00
         -1   -1    0    0    0  501 -0.00000000000E+00  0.00000000000E+00  0.18778109961E+02  0.18778109961E+02  0.00000000000E+00 0.  1.
          1   -1    0    0  501    0  0.00000000000E+00 -0.00000000000E+00 -0.10018697104E+04  0.10018697104E+04  0.00000000000E+00 0.  1.
         35    2    1    2    0    0  0.00000000000E+00  0.00000000000E+00 -0.98309160041E+03  0.10206478203E+04  0.27432258082E+03 0.  0.
         25    1    3    3    0    0  0.11255387926E+02 -0.49960039044E+02 -0.33410938394E+03  0.35868059565E+03  0.12000000000E+03 0.  0.
         25    1    3    3    0    0 -0.11255387926E+02  0.49960039044E+02 -0.64898221647E+03  0.66196722468E+03  0.12000000000E+03 0.  0.
<mgrwt>
<rscale>  0 0.27432258E+03</rscale>
<asrwt>0</asrwt>
<pdfrwt beam="1">  1        1 0.15413388E+00 0.27432258E+03</pdfrwt>
<pdfrwt beam="2">  1       -1 0.28889385E-02 0.27432258E+03</pdfrwt>
<totfact> 0.63527942E+03</totfact>
</mgrwt>
</event>
<event>
 5    1  0.1139158E+001  0.2747767E+03  0.7818608E-02  0.1098576E+00
         -2   -1    0    0    0  501 -0.00000000000E+00  0.00000000000E+00  0.24664959323E+02  0.24664959323E+02  0.00000000000E+00 0.  1.
          2   -1    0    0  501    0  0.00000000000E+00 -0.00000000000E+00 -0.76527828123E+03  0.76527828123E+03  0.00000000000E+00 0.  1.
         35    2    1    2    0    0  0.00000000000E+00  0.00000000000E+00 -0.74061332191E+03  0.78994324056E+03  0.27477669244E+03 0.  0.
         25    1    3    3    0    0  0.63676502356E+02  0.16629560542E+02 -0.33577027330E+03  0.36259194099E+03  0.12000000000E+03 0.  0.
         25    1    3    3    0    0 -0.63676502356E+02 -0.16629560542E+02 -0.40484304861E+03  0.42735129957E+03  0.12000000000E+03 0.  0.
<mgrwt>
<rscale>  0 0.27477669E+03</rscale>
<asrwt>0</asrwt>
<pdfrwt beam="1">  1        2 0.11773511E+00 0.27477669E+03</pdfrwt>
<pdfrwt beam="2">  1       -2 0.37946096E-02 0.27477669E+03</pdfrwt>
<totfact> 0.11131232E+04</totfact>
</mgrwt>
</event>
<event>
 5    1  0.1139158E+001  0.2754190E+03  0.7818608E-02  0.1098218E+00
         -2   -1    0    0    0  501 -0.00000000000E+00  0.00000000000E+00  0.13571899851E+03  0.13571899851E+03  0.00000000000E+00 0. -1.
          2   -1    0    0  501    0  0.00000000000E+00 -0.00000000000E+00 -0.13972919702E+03  0.13972919702E+03  0.00000000000E+00 0. -1.
         35    2    1    2    0    0  0.00000000000E+00  0.00000000000E+00 -0.40101985080E+01  0.27544819553E+03  0.27541900212E+03 0.  0.
         25    1    3    3    0    0  0.43795177737E+02  0.19893360491E+02 -0.49445802632E+02  0.13841477805E+03  0.12000000000E+03 0.  0.
         25    1    3    3    0    0 -0.43795177737E+02 -0.19893360491E+02  0.45435604125E+02  0.13703341748E+03  0.12000000000E+03 0.  0.
<mgrwt>
<rscale>  0 0.27541900E+03</rscale>
<asrwt>0</asrwt>
<pdfrwt beam="1">  1        2 0.21496799E-01 0.27541900E+03</pdfrwt>
<pdfrwt beam="2">  1       -2 0.20879846E-01 0.27541900E+03</pdfrwt>
<totfact> 0.49514039E+03</totfact>
</mgrwt>
</event>
<event>
 5    1  0.1139158E+001  0.2751316E+03  0.7818608E-02  0.1098378E+00
          1   -1    0    0  501    0  0.00000000000E+00  0.00000000000E+00  0.10918631493E+04  0.10918631493E+04  0.00000000000E+00 0.  1.
         -1   -1    0    0    0  501 -0.00000000000E+00 -0.00000000000E+00 -0.17332164795E+02  0.17332164795E+02  0.00000000000E+00 0.  1.
         35    2    1    2    0    0  0.00000000000E+00  0.00000000000E+00  0.10745309845E+04  0.11091953140E+04  0.27513161968E+03 0.  0.
         25    1    3    3    0    0 -0.18870396728E+02 -0.54829441157E+02  0.67469158294E+03  0.68772893758E+03  0.12000000000E+03 0.  0.
         25    1    3    3    0    0  0.18870396728E+02  0.54829441157E+02  0.39983940152E+03  0.42146637647E+03  0.12000000000E+03 0.  0.
<mgrwt>
<rscale>  0 0.27513162E+03</rscale>
<asrwt>0</asrwt>
<pdfrwt beam="1">  1        1 0.16797889E+00 0.27513162E+03</pdfrwt>
<pdfrwt beam="2">  1       -1 0.26664877E-02 0.27513162E+03</pdfrwt>
<totfact> 0.61390366E+03</totfact>
</mgrwt>
</event>
<event>
 5    1  0.1139158E+001  0.2747200E+03  0.7818608E-02  0.1098608E+00
         -2   -1    0    0    0  501 -0.00000000000E+00  0.00000000000E+00  0.32930353292E+02  0.32930353292E+02  0.00000000000E+00 0.  1.
          2   -1    0    0  501    0  0.00000000000E+00 -0.00000000000E+00 -0.57295976026E+03  0.57295976026E+03  0.00000000000E+00 0.  1.
         35    2    1    2    0    0  0.00000000000E+00  0.00000000000E+00 -0.54002940697E+03  0.60589011355E+03  0.27471998346E+03 0.  0.
         25    1    3    3    0    0  0.23452068266E+02 -0.48006253784E+01 -0.13237559970E+03  0.18026742608E+03  0.12000000000E+03 0.  0.
         25    1    3    3    0    0 -0.23452068266E+02  0.48006253784E+01 -0.40765380727E+03  0.42562268747E+03  0.12000000000E+03 0.  0.
<mgrwt>
<rscale>  0 0.27471998E+03</rscale>
<asrwt>0</asrwt>
<pdfrwt beam="1">  1        2 0.88147658E-01 0.27471998E+03</pdfrwt>
<pdfrwt beam="2">  1       -2 0.50662080E-02 0.27471998E+03</pdfrwt>
<totfact> 0.10167185E+04</totfact>
</mgrwt>
</event>
<event>
 5    1  0.1139158E+001  0.2745622E+03  0.7818608E-02  0.1098697E+00
          1   -1    0    0  501    0  0.00000000000E+00  0.00000000000E+00  0.42357553971E+03  0.42357553971E+03  0.00000000000E+00 0. -1.
         -1   -1    0    0    0  501 -0.00000000000E+00 -0.00000000000E+00 -0.44492889555E+02  0.44492889555E+02  0.00000000000E+00 0. -1.
         35    2    1    2    0    0  0.00000000000E+00  0.00000000000E+00  0.37908265016E+03  0.46806842927E+03  0.27456219482E+03 0.  0.
         25    1    3    3    0    0  0.25702484249E+02 -0.27360600731E+02  0.28348821212E+03  0.31012060005E+03  0.12000000000E+03 0.  0.
         25    1    3    3    0    0 -0.25702484249E+02  0.27360600731E+02  0.95594438043E+02  0.15794782921E+03  0.12000000000E+03 0.  0.
<mgrwt>
<rscale>  0 0.27456219E+03</rscale>
<asrwt>0</asrwt>
<pdfrwt beam="1">  1        1 0.65165465E-01 0.27456219E+03</pdfrwt>
<pdfrwt beam="2">  1       -1 0.68450602E-02 0.27456219E+03</pdfrwt>
<totfact> 0.61142259E+03</totfact>
</mgrwt>
</event>
<event>
 5    1  0.1139158E+001  0.2755126E+03  0.7818608E-02  0.1098165E+00
          2   -1    0    0  501    0  0.00000000000E+00  0.00000000000E+00  0.10482947276E+04  0.10482947276E+04  0.00000000000E+00 0. -1.
         -2   -1    0    0    0  501 -0.00000000000E+00 -0.00000000000E+00 -0.18102547010E+02  0.18102547010E+02  0.00000000000E+00 0. -1.
         35    2    1    2    0    0  0.00000000000E+00  0.00000000000E+00  0.10301921806E+04  0.10663972746E+04  0.27551264644E+03 0.  0.
         25    1    3    3    0    0  0.59376066028E+02 -0.90549890434E+01  0.63560117491E+03  0.64961247185E+03  0.12000000000E+03 0.  0.
         25    1    3    3    0    0 -0.59376066028E+02  0.90549890434E+01  0.39459100570E+03  0.41678480278E+03  0.12000000000E+03 0.  0.
<mgrwt>
<rscale>  0 0.27551265E+03</rscale>
<asrwt>0</asrwt>
<pdfrwt beam="1">  1        2 0.16127606E+00 0.27551265E+03</pdfrwt>
<pdfrwt beam="2">  1       -2 0.27850080E-02 0.27551265E+03</pdfrwt>
<totfact> 0.11585644E+04</totfact>
</mgrwt>
</event>
<event>
 5    1  0.1139158E+001  0.2742582E+03  0.7818608E-02  0.1098867E+00
          1   -1    0    0  501    0  0.00000000000E+00  0.00000000000E+00  0.37649139780E+04  0.37649139780E+04  0.00000000000E+00 0.  1.
         -1   -1    0    0    0  501 -0.00000000000E+00 -0.00000000000E+00 -0.49946400679E+01  0.49946400679E+01  0.00000000000E+00 0.  1.
         35    2    1    2    0    0  0.00000000000E+00  0.00000000000E+00  0.37599193379E+04  0.37699086180E+04  0.27425820102E+03 0.  0.
         25    1    3    3    0    0 -0.46823215961E+02  0.27793609415E+02  0.24014854922E+04  0.24050982241E+04  0.12000000000E+03 0.  0.
         25    1    3    3    0    0  0.46823215961E+02 -0.27793609415E+02  0.13584338457E+04  0.13648103940E+04  0.12000000000E+03 0.  0.
<mgrwt>
<rscale>  0 0.27425820E+03</rscale>
<asrwt>0</asrwt>
<pdfrwt beam="1">  1        1 0.57921527E+00 0.27425820E+03</pdfrwt>
<pdfrwt beam="2">  1       -1 0.76840918E-03 0.27425820E+03</pdfrwt>
<totfact> 0.53805931E+02</totfact>
</mgrwt>
</event>
<event>
 5    1  0.1139158E+001  0.2771596E+03  0.7818608E-02  0.1097251E+00
          3   -1    0    0  501    0  0.00000000000E+00  0.00000000000E+00  0.92196612665E+02  0.92196612665E+02  0.00000000000E+00 0. -1.
         -3   -1    0    0    0  501 -0.00000000000E+00 -0.00000000000E+00 -0.20829784890E+03  0.20829784890E+03  0.00000000000E+00 0. -1.
         35    2    1    2    0    0  0.00000000000E+00  0.00000000000E+00 -0.11610123624E+03  0.30049446157E+03  0.27715956483E+03 0.  0.
         25    1    3    3    0    0  0.62106187538E+02 -0.13414782965E+02 -0.88081417158E+02  0.16185014977E+03  0.12000000000E+03 0.  0.
         25    1    3    3    0    0 -0.62106187538E+02  0.13414782965E+02 -0.28019819081E+02  0.13864431180E+03  0.12000000000E+03 0.  0.
<mgrwt>
<rscale>  0 0.27715956E+03</rscale>
<asrwt>0</asrwt>
<pdfrwt beam="1">  1        3 0.14184094E-01 0.27715956E+03</pdfrwt>
<pdfrwt beam="2">  1       -3 0.32045823E-01 0.27715956E+03</pdfrwt>
<totfact> 0.98684362E+02</totfact>
</mgrwt>
</event>
<event>
 5    1  0.1139158E+001  0.2759473E+03  0.7818608E-02  0.1097923E+00
          1   -1    0    0  501    0  0.00000000000E+00  0.00000000000E+00  0.37738578664E+02  0.37738578664E+02  0.00000000000E+00 0. -1.
         -1   -1    0    0    0  501 -0.00000000000E+00 -0.00000000000E+00 -0.50443691960E+03  0.50443691960E+03  0.00000000000E+00 0. -1.
         35    2    1    2    0    0  0.00000000000E+00  0.00000000000E+00 -0.46669834093E+03  0.54217549826E+03  0.27594733100E+03 0.  0.
         25    1    3    3    0    0  0.61753448999E+02 -0.16350732117E+02 -0.27967370211E+03  0.31096336529E+03  0.12000000000E+03 0.  0.
         25    1    3    3    0    0 -0.61753448999E+02  0.16350732117E+02 -0.18702463883E+03  0.23121213297E+03  0.12000000000E+03 0.  0.
<mgrwt>
<rscale>  0 0.27594733E+03</rscale>
<asrwt>0</asrwt>
<pdfrwt beam="1">  1        1 0.58059353E-02 0.27594733E+03</pdfrwt>
<pdfrwt beam="2">  1       -1 0.77605679E-01 0.27594733E+03</pdfrwt>
<totfact> 0.23453961E+03</totfact>
</mgrwt>
</event>
<event>
 5    1  0.1139158E+001  0.2754582E+03  0.7818608E-02  0.1098196E+00
          1   -1    0    0  501    0  0.00000000000E+00  0.00000000000E+00  0.34253715665E+03  0.34253715665E+03  0.00000000000E+00 0.  1.
         -1   -1    0    0    0  501 -0.00000000000E+00 -0.00000000000E+00 -0.55378819513E+02  0.55378819513E+02  0.00000000000E+00 0.  1.
         35    2    1    2    0    0  0.00000000000E+00  0.00000000000E+00  0.28715833714E+03  0.39791597616E+03  0.27545818830E+03 0.  0.
         25    1    3    3    0    0  0.41892167151E+02  0.89974445325E-01  0.22021362749E+03  0.25426168311E+03  0.12000000000E+03 0.  0.
         25    1    3    3    0    0 -0.41892167151E+02 -0.89974445325E-01  0.66944709647E+02  0.14365429306E+03  0.12000000000E+03 0.  0.
<mgrwt>
<rscale>  0 0.27545819E+03</rscale>
<asrwt>0</asrwt>
<pdfrwt beam="1">  1        1 0.52698023E-01 0.27545819E+03</pdfrwt>
<pdfrwt beam="2">  1       -1 0.85198186E-02 0.27545819E+03</pdfrwt>
<totfact> 0.57453295E+03</totfact>
</mgrwt>
</event>
<event>
 5    1  0.1139158E+001  0.2757811E+03  0.7818608E-02  0.1098016E+00
          1   -1    0    0  501    0  0.00000000000E+00  0.00000000000E+00  0.26530189325E+03  0.26530189325E+03  0.00000000000E+00 0.  1.
         -1   -1    0    0    0  501 -0.00000000000E+00 -0.00000000000E+00 -0.71668553433E+02  0.71668553433E+02  0.00000000000E+00 0.  1.
         35    2    1    2    0    0  0.00000000000E+00  0.00000000000E+00  0.19363333982E+03  0.33697044668E+03  0.27578109371E+03 0.  0.
         25    1    3    3    0    0  0.12697596274E+02 -0.55031876326E+02  0.14292638795E+03  0.19498125227E+03  0.12000000000E+03 0.  0.
         25    1    3    3    0    0 -0.12697596274E+02  0.55031876326E+02  0.50706951864E+02  0.14198919441E+03  0.12000000000E+03 0.  0.
<mgrwt>
<rscale>  0 0.27578109E+03</rscale>
<asrwt>0</asrwt>
<pdfrwt beam="1">  1        1 0.40815675E-01 0.27578109E+03</pdfrwt>
<pdfrwt beam="2">  1       -1 0.11025931E-01 0.27578109E+03</pdfrwt>
<totfact> 0.53238257E+03</totfact>
</mgrwt>
</event>
<event>
 5    1  0.1139158E+001  0.2750809E+03  0.7818608E-02  0.1098406E+00
          2   -1    0    0  501    0  0.00000000000E+00  0.00000000000E+00  0.16642106635E+04  0.16642106635E+04  0.00000000000E+00 0. -1.
         -2   -1    0    0    0  501 -0.00000000000E+00 -0.00000000000E+00 -0.11367174109E+02  0.11367174109E+02  0.00000000000E+00 0. -1.
         35    2    1    2    0    0  0.00000000000E+00  0.00000000000E+00  0.16528434894E+04  0.16755778376E+04  0.27508087804E+03 0.  0.
         25    1    3    3    0    0 -0.35089581871E+02 -0.43467047905E+02  0.10540662786E+04  0.10623447570E+04  0.12000000000E+03 0.  0.
         25    1    3    3    0    0  0.35089581871E+02  0.43467047905E+02  0.59877721078E+03  0.61323308061E+03  0.12000000000E+03 0.  0.
<mgrwt>
<rscale>  0 0.27508088E+03</rscale>
<asrwt>0</asrwt>
<pdfrwt beam="1">  1        2 0.25603222E+00 0.27508088E+03</pdfrwt>
<pdfrwt beam="2">  1       -2 0.17487973E-02 0.27508088E+03</pdfrwt>
<totfact> 0.10510549E+04</totfact>
</mgrwt>
</event>
<event>
 5    1  0.1139158E+001  0.2754558E+03  0.7818608E-02  0.1098197E+00
          1   -1    0    0  501    0  0.00000000000E+00  0.00000000000E+00  0.11391261117E+04  0.11391261117E+04  0.00000000000E+00 0.  1.
         -1   -1    0    0    0  501 -0.00000000000E+00 -0.00000000000E+00 -0.16652221036E+02  0.16652221036E+02  0.00000000000E+00 0.  1.
         35    2    1    2    0    0  0.00000000000E+00  0.00000000000E+00  0.11224738906E+04  0.11557783327E+04  0.27545583893E+03 0.  0.
         25    1    3    3    0    0  0.22109882613E+02  0.63866329647E+02  0.56588060298E+03  0.58239901425E+03  0.12000000000E+03 0.  0.
         25    1    3    3    0    0 -0.22109882613E+02 -0.63866329647E+02  0.55659328767E+03  0.57337931847E+03  0.12000000000E+03 0.  0.
<mgrwt>
<rscale>  0 0.27545584E+03</rscale>
<asrwt>0</asrwt>
<pdfrwt beam="1">  1        1 0.17525011E+00 0.27545584E+03</pdfrwt>
<pdfrwt beam="2">  1       -1 0.25618811E-02 0.27545584E+03</pdfrwt>
<totfact> 0.60224219E+03</totfact>
</mgrwt>
</event>
<event>
 5    1  0.1139158E+001  0.2749228E+03  0.7818608E-02  0.1098495E+00
          1   -1    0    0  501    0  0.00000000000E+00  0.00000000000E+00  0.40132600593E+03  0.40132600593E+03  0.00000000000E+00 0. -1.
         -1   -1    0    0    0  501 -0.00000000000E+00 -0.00000000000E+00 -0.47082999074E+02  0.47082999074E+02  0.00000000000E+00 0. -1.
         35    2    1    2    0    0  0.00000000000E+00  0.00000000000E+00  0.35424300685E+03  0.44840900500E+03  0.27492276708E+03 0.  0.
         25    1    3    3    0    0 -0.51024593764E+02 -0.34937513235E+02  0.21938684205E+03  0.25759410992E+03  0.12000000000E+03 0.  0.
         25    1    3    3    0    0  0.51024593764E+02  0.34937513235E+02  0.13485616480E+03  0.19081489508E+03  0.12000000000E+03 0.  0.
<mgrwt>
<rscale>  0 0.27492277E+03</rscale>
<asrwt>0</asrwt>
<pdfrwt beam="1">  1        1 0.61742460E-01 0.27492277E+03</pdfrwt>
<pdfrwt beam="2">  1       -1 0.72435386E-02 0.27492277E+03</pdfrwt>
<totfact> 0.60147258E+03</totfact>
</mgrwt>
</event>
<event>
 5    1  0.1139158E+001  0.2750986E+03  0.7818608E-02  0.1098397E+00
         -2   -1    0    0    0  501 -0.00000000000E+00  0.00000000000E+00  0.36760224758E+02  0.36760224758E+02  0.00000000000E+00 0.  1.
          2   -1    0    0  501    0  0.00000000000E+00 -0.00000000000E+00 -0.51468150971E+03  0.51468150971E+03  0.00000000000E+00 0.  1.
         35    2    1    2    0    0  0.00000000000E+00  0.00000000000E+00 -0.47792128495E+03  0.55144173447E+03  0.27509858579E+03 0.  0.
         25    1    3    3    0    0  0.38785823946E+02 -0.39360028505E+02 -0.16220396388E+03  0.20919770047E+03  0.12000000000E+03 0.  0.
         25    1    3    3    0    0 -0.38785823946E+02  0.39360028505E+02 -0.31571732108E+03  0.34224403400E+03  0.12000000000E+03 0.  0.
<mgrwt>
<rscale>  0 0.27509859E+03</rscale>
<asrwt>0</asrwt>
<pdfrwt beam="1">  1        2 0.79181769E-01 0.27509859E+03</pdfrwt>
<pdfrwt beam="2">  1       -2 0.56554193E-02 0.27509859E+03</pdfrwt>
<totfact> 0.97115784E+03</totfact>
</mgrwt>
</event>
<event>
 5    1  0.1139158E+001  0.2717022E+03  0.7818608E-02  0.1100309E+00
         -3   -1    0    0    0  501 -0.00000000000E+00  0.00000000000E+00  0.24432790774E+03  0.24432790774E+03  0.00000000000E+00 0. -1.
          3   -1    0    0  501    0  0.00000000000E+00 -0.00000000000E+00 -0.75535888848E+02  0.75535888848E+02  0.00000000000E+00 0. -1.
         35    2    1    2    0    0  0.00000000000E+00  0.00000000000E+00  0.16879201890E+03  0.31986379659E+03  0.27170223173E+03 0.  0.
         25    1    3    3    0    0 -0.95339129658E+01 -0.51251849525E+02  0.12745661723E+03  0.18265496667E+03  0.12000000000E+03 0.  0.
         25    1    3    3    0    0  0.95339129658E+01  0.51251849525E+02  0.41335401672E+02  0.13720882992E+03  0.12000000000E+03 0.  0.
<mgrwt>
<rscale>  0 0.27170223E+03</rscale>
<asrwt>0</asrwt>
<pdfrwt beam="1">  1        3 0.11620906E-01 0.27170223E+03</pdfrwt>
<pdfrwt beam="2">  1       -3 0.37588909E-01 0.27170223E+03</pdfrwt>
<totfact> 0.10202143E+03</totfact>
</mgrwt>
</event>
<event>
 5    1  0.1139158E+001  0.2737034E+03  0.7818608E-02  0.1099179E+00
          1   -1    0    0  501    0  0.00000000000E+00  0.00000000000E+00  0.67154960714E+03  0.67154960714E+03  0.00000000000E+00 0.  1.
         -1   -1    0    0    0  501 -0.00000000000E+00 -0.00000000000E+00 -0.27888314128E+02  0.27888314128E+02  0.00000000000E+00 0.  1.
         35    2    1    2    0    0  0.00000000000E+00  0.00000000000E+00  0.64366129301E+03  0.69943792127E+03  0.27370338980E+03 0.  0.
         25    1    3    3    0    0 -0.10720487423E+02 -0.22643087320E+02  0.16637240048E+03  0.20665772159E+03  0.12000000000E+03 0.  0.
         25    1    3    3    0    0  0.10720487423E+02  0.22643087320E+02  0.47728889253E+03  0.49278019967E+03  0.12000000000E+03 0.  0.
<mgrwt>
<rscale>  0 0.27370339E+03</rscale>
<asrwt>0</asrwt>
<pdfrwt beam="1">  1        1 0.10331531E+00 0.27370339E+03</pdfrwt>
<pdfrwt beam="2">  1       -1 0.42905104E-02 0.27370339E+03</pdfrwt>
<totfact> 0.66118034E+03</totfact>
</mgrwt>
</event>
<event>
 5    1  0.1139158E+001  0.2749386E+03  0.7818608E-02  0.1098486E+00
         -1   -1    0    0    0  501 -0.00000000000E+00  0.00000000000E+00  0.99675877389E+01  0.99675877389E+01  0.00000000000E+00 0.  1.
          1   -1    0    0  501    0  0.00000000000E+00 -0.00000000000E+00 -0.18959263044E+04  0.18959263044E+04  0.00000000000E+00 0.  1.
         35    2    1    2    0    0  0.00000000000E+00  0.00000000000E+00 -0.18859587167E+04  0.19058938922E+04  0.27493862432E+03 0.  0.
         25    1    3    3    0    0  0.27937048089E+02  0.42320797637E+02 -0.12472240667E+04  0.12540093305E+04  0.12000000000E+03 0.  0.
         25    1    3    3    0    0 -0.27937048089E+02 -0.42320797637E+02 -0.63873465000E+03  0.65188456162E+03  0.12000000000E+03 0.  0.
<mgrwt>
<rscale>  0 0.27493862E+03</rscale>
<asrwt>0</asrwt>
<pdfrwt beam="1">  1        1 0.29168077E+00 0.27493862E+03</pdfrwt>
<pdfrwt beam="2">  1       -1 0.15334761E-02 0.27493862E+03</pdfrwt>
<totfact> 0.39840186E+03</totfact>
</mgrwt>
</event>
<event>
 5    1  0.1139158E+001  0.2701460E+03  0.7818608E-02  0.1101196E+00
         -2   -1    0    0    0  501 -0.00000000000E+00  0.00000000000E+00  0.16354877572E+02  0.16354877572E+02  0.00000000000E+00 0.  1.
          2   -1    0    0  501    0  0.00000000000E+00 -0.00000000000E+00 -0.11155519530E+04  0.11155519530E+04  0.00000000000E+00 0.  1.
         35    2    1    2    0    0  0.00000000000E+00  0.00000000000E+00 -0.10991970755E+04  0.11319068306E+04  0.27014600213E+03 0.  0.
         25    1    3    3    0    0  0.29677441312E+02 -0.27274350605E+01 -0.32177268666E+03  0.34471125787E+03  0.12000000000E+03 0.  0.
         25    1    3    3    0    0 -0.29677441312E+02  0.27274350605E+01 -0.77742438879E+03  0.78719557272E+03  0.12000000000E+03 0.  0.
<mgrwt>
<rscale>  0 0.27014600E+03</rscale>
<asrwt>0</asrwt>
<pdfrwt beam="1">  1        2 0.17162335E+00 0.27014600E+03</pdfrwt>
<pdfrwt beam="2">  1       -2 0.25161354E-02 0.27014600E+03</pdfrwt>
<totfact> 0.12280942E+04</totfact>
</mgrwt>
</event>
<event>
 5    1  0.1139158E+001  0.2762185E+03  0.7818608E-02  0.1097772E+00
          2   -1    0    0  501    0  0.00000000000E+00  0.00000000000E+00  0.87904543861E+03  0.87904543861E+03  0.00000000000E+00 0.  1.
         -2   -1    0    0    0  501 -0.00000000000E+00 -0.00000000000E+00 -0.21698722785E+02  0.21698722785E+02  0.00000000000E+00 0.  1.
         35    2    1    2    0    0  0.00000000000E+00  0.00000000000E+00  0.85734671583E+03  0.90074416140E+03  0.27621848807E+03 0.  0.
         25    1    3    3    0    0 -0.65940984650E+02  0.12831839467E+02  0.47008833746E+03  0.48979170530E+03  0.12000000000E+03 0.  0.
         25    1    3    3    0    0  0.65940984650E+02 -0.12831839467E+02  0.38725837836E+03  0.41095245610E+03  0.12000000000E+03 0.  0.
<mgrwt>
<rscale>  0 0.27621849E+03</rscale>
<asrwt>0</asrwt>
<pdfrwt beam="1">  1        2 0.13523773E+00 0.27621849E+03</pdfrwt>
<pdfrwt beam="2">  1       -2 0.33382657E-02 0.27621849E+03</pdfrwt>
<totfact> 0.11285105E+04</totfact>
</mgrwt>
</event>
<event>
 5    1  0.1139158E+001  0.2746605E+03  0.7818608E-02  0.1098642E+00
          2   -1    0    0  501    0  0.00000000000E+00  0.00000000000E+00  0.20864027709E+04  0.20864027709E+04  0.00000000000E+00 0. -1.
         -2   -1    0    0    0  501 -0.00000000000E+00 -0.00000000000E+00 -0.90392888482E+01  0.90392888482E+01  0.00000000000E+00 0. -1.
         35    2    1    2    0    0  0.00000000000E+00  0.00000000000E+00  0.20773634820E+04  0.20954420597E+04  0.27466049806E+03 0.  0.
         25    1    3    3    0    0 -0.53815799708E+02 -0.36249159067E+02  0.11591786670E+04  0.11671783599E+04  0.12000000000E+03 0.  0.
         25    1    3    3    0    0  0.53815799708E+02  0.36249159067E+02  0.91818481504E+03  0.92826369982E+03  0.12000000000E+03 0.  0.
<mgrwt>
<rscale>  0 0.27466050E+03</rscale>
<asrwt>0</asrwt>
<pdfrwt beam="1">  1        2 0.32098466E+00 0.27466050E+03</pdfrwt>
<pdfrwt beam="2">  1       -2 0.13906615E-02 0.27466050E+03</pdfrwt>
<totfact> 0.88164643E+03</totfact>
</mgrwt>
</event>
<event>
 5    1  0.1139158E+001  0.2746860E+03  0.7818608E-02  0.1098627E+00
          1   -1    0    0  501    0  0.00000000000E+00  0.00000000000E+00  0.62762010595E+02  0.62762010595E+02  0.00000000000E+00 0. -1.
         -1   -1    0    0    0  501 -0.00000000000E+00 -0.00000000000E+00 -0.30054970318E+03  0.30054970318E+03  0.00000000000E+00 0. -1.
         35    2    1    2    0    0  0.00000000000E+00  0.00000000000E+00 -0.23778769259E+03  0.36331171378E+03  0.27468602917E+03 0.  0.
         25    1    3    3    0    0 -0.14341975435E+02  0.42707158637E+02 -0.53647019282E+02  0.13895177702E+03  0.12000000000E+03 0.  0.
         25    1    3    3    0    0  0.14341975435E+02 -0.42707158637E+02 -0.18414067331E+03  0.22435993676E+03  0.12000000000E+03 0.  0.
<mgrwt>
<rscale>  0 0.27468603E+03</rscale>
<asrwt>0</asrwt>
<pdfrwt beam="1">  1        1 0.96556938E-02 0.27468603E+03</pdfrwt>
<pdfrwt beam="2">  1       -1 0.46238416E-01 0.27468603E+03</pdfrwt>
<totfact> 0.31811817E+03</totfact>
</mgrwt>
</event>
<event>
 5    1  0.1139158E+001  0.2741204E+03  0.7818608E-02  0.1098944E+00
         -2   -1    0    0    0  501 -0.00000000000E+00  0.00000000000E+00  0.10503582860E+04  0.10503582860E+04  0.00000000000E+00 0.  1.
          2   -1    0    0  501    0  0.00000000000E+00 -0.00000000000E+00 -0.17884850393E+02  0.17884850393E+02  0.00000000000E+00 0.  1.
         35    2    1    2    0    0  0.00000000000E+00  0.00000000000E+00  0.10324734356E+04  0.10682431364E+04  0.27412041737E+03 0.  0.
         25    1    3    3    0    0 -0.34069676744E+02 -0.24566054299E+02  0.31671767662E+03  0.34128334355E+03  0.12000000000E+03 0.  0.
         25    1    3    3    0    0  0.34069676744E+02  0.24566054299E+02  0.71575575901E+03  0.72695979287E+03  0.12000000000E+03 0.  0.
<mgrwt>
<rscale>  0 0.27412042E+03</rscale>
<asrwt>0</asrwt>
<pdfrwt beam="1">  1        2 0.27515163E-02 0.27412042E+03</pdfrwt>
<pdfrwt beam="2">  1       -2 0.16159353E+00 0.27412042E+03</pdfrwt>
<totfact> 0.91992335E+02</totfact>
</mgrwt>
</event>
<event>
 5    1  0.1139158E+001  0.2751434E+03  0.7818608E-02  0.1098371E+00
          2   -1    0    0  501    0  0.00000000000E+00  0.00000000000E+00  0.18206107213E+04  0.18206107213E+04  0.00000000000E+00 0. -1.
         -2   -1    0    0    0  501 -0.00000000000E+00 -0.00000000000E+00 -0.10395395887E+02  0.10395395887E+02  0.00000000000E+00 0. -1.
         35    2    1    2    0    0  0.00000000000E+00  0.00000000000E+00  0.18102153255E+04  0.18310061172E+04  0.27514337501E+03 0.  0.
         25    1    3    3    0    0  0.11158972509E+01 -0.65200361821E+02  0.10151900864E+04  0.10243355134E+04  0.12000000000E+03 0.  0.
         25    1    3    3    0    0 -0.11158972509E+01  0.65200361821E+02  0.79502523905E+03  0.80667060386E+03  0.12000000000E+03 0.  0.
<mgrwt>
<rscale>  0 0.27514338E+03</rscale>
<asrwt>0</asrwt>
<pdfrwt beam="1">  1        2 0.28009370E+00 0.27514338E+03</pdfrwt>
<pdfrwt beam="2">  1       -2 0.15992931E-02 0.27514338E+03</pdfrwt>
<totfact> 0.99141820E+03</totfact>
</mgrwt>
</event>
<event>
 5    1  0.1139158E+001  0.2747108E+03  0.7818608E-02  0.1098613E+00
          2   -1    0    0  501    0  0.00000000000E+00  0.00000000000E+00  0.13457303581E+04  0.13457303581E+04  0.00000000000E+00 0.  1.
         -2   -1    0    0    0  501 -0.00000000000E+00 -0.00000000000E+00 -0.14019527704E+02  0.14019527704E+02  0.00000000000E+00 0.  1.
         35    2    1    2    0    0  0.00000000000E+00  0.00000000000E+00  0.13317108304E+04  0.13597498858E+04  0.27471078637E+03 0.  0.
         25    1    3    3    0    0  0.87814562297E+01 -0.32522943157E+02  0.38015367262E+03  0.40006458305E+03  0.12000000000E+03 0.  0.
         25    1    3    3    0    0 -0.87814562297E+01  0.32522943157E+02  0.95155715778E+03  0.95968530276E+03  0.12000000000E+03 0.  0.
<mgrwt>
<rscale>  0 0.27471079E+03</rscale>
<asrwt>0</asrwt>
<pdfrwt beam="1">  1        2 0.20703534E+00 0.27471079E+03</pdfrwt>
<pdfrwt beam="2">  1       -2 0.21568515E-02 0.27471079E+03</pdfrwt>
<totfact> 0.11439163E+04</totfact>
</mgrwt>
</event>
<event>
 5    1  0.1139158E+001  0.2754444E+03  0.7818608E-02  0.1098203E+00
         -1   -1    0    0    0  501 -0.00000000000E+00  0.00000000000E+00  0.16374787211E+03  0.16374787211E+03  0.00000000000E+00 0. -1.
          1   -1    0    0  501    0  0.00000000000E+00 -0.00000000000E+00 -0.11583299553E+03  0.11583299553E+03  0.00000000000E+00 0. -1.
         35    2    1    2    0    0  0.00000000000E+00  0.00000000000E+00  0.47914876580E+02  0.27958086764E+03  0.27544441573E+03 0.  0.
         25    1    3    3    0    0 -0.34753819417E+02 -0.67656224559E+01  0.82387580856E+02  0.14980425592E+03  0.12000000000E+03 0.  0.
         25    1    3    3    0    0  0.34753819417E+02  0.67656224559E+01 -0.34472704276E+02  0.12977661173E+03  0.12000000000E+03 0.  0.
<mgrwt>
<rscale>  0 0.27544442E+03</rscale>
<asrwt>0</asrwt>
<pdfrwt beam="1">  1        1 0.17820461E-01 0.27544442E+03</pdfrwt>
<pdfrwt beam="2">  1       -1 0.25191980E-01 0.27544442E+03</pdfrwt>
<totfact> 0.40577698E+03</totfact>
</mgrwt>
</event>
<event>
 5    1  0.1139158E+001  0.2752597E+03  0.7818608E-02  0.1098307E+00
          2   -1    0    0  501    0  0.00000000000E+00  0.00000000000E+00  0.48346811137E+02  0.48346811137E+02  0.00000000000E+00 0.  1.
         -2   -1    0    0    0  501 -0.00000000000E+00 -0.00000000000E+00 -0.39179360364E+03  0.39179360364E+03  0.00000000000E+00 0.  1.
         35    2    1    2    0    0  0.00000000000E+00  0.00000000000E+00 -0.34344679250E+03  0.44014041477E+03  0.27525966911E+03 0.  0.
         25    1    3    3    0    0  0.55927796219E+02  0.36806901683E+02 -0.18403725501E+03  0.22967885761E+03  0.12000000000E+03 0.  0.
         25    1    3    3    0    0 -0.55927796219E+02 -0.36806901683E+02 -0.15940953749E+03  0.21046155716E+03  0.12000000000E+03 0.  0.
<mgrwt>
<rscale>  0 0.27525967E+03</rscale>
<asrwt>0</asrwt>
<pdfrwt beam="1">  1        2 0.74379706E-02 0.27525967E+03</pdfrwt>
<pdfrwt beam="2">  1       -2 0.60275942E-01 0.27525967E+03</pdfrwt>
<totfact> 0.24392721E+03</totfact>
</mgrwt>
</event>
<event>
 5    1  0.1139158E+001  0.2752902E+03  0.7818608E-02  0.1098290E+00
          2   -1    0    0  501    0  0.00000000000E+00  0.00000000000E+00  0.33919954767E+02  0.33919954767E+02  0.00000000000E+00 0. -1.
         -2   -1    0    0    0  501 -0.00000000000E+00 -0.00000000000E+00 -0.55855531409E+03  0.55855531409E+03  0.00000000000E+00 0. -1.
         35    2    1    2    0    0  0.00000000000E+00  0.00000000000E+00 -0.52463535932E+03  0.59247526886E+03  0.27529018136E+03 0.  0.
         25    1    3    3    0    0  0.30792111396E+02  0.41607771186E+02 -0.35530625461E+03  0.37857878349E+03  0.12000000000E+03 0.  0.
         25    1    3    3    0    0 -0.30792111396E+02 -0.41607771186E+02 -0.16932910472E+03  0.21389648536E+03  0.12000000000E+03 0.  0.
<mgrwt>
<rscale>  0 0.27529018E+03</rscale>
<asrwt>0</asrwt>
<pdfrwt beam="1">  1        2 0.52184551E-02 0.27529018E+03</pdfrwt>
<pdfrwt beam="2">  1       -2 0.85931579E-01 0.27529018E+03</pdfrwt>
<totfact> 0.18003608E+03</totfact>
</mgrwt>
</event>
<event>
 5    1  0.1139158E+001  0.2762928E+03  0.7818608E-02  0.1097731E+00
          4   -1    0    0  501    0  0.00000000000E+00  0.00000000000E+00  0.70705203120E+02  0.70705203120E+02  0.00000000000E+00 0. -1.
         -4   -1    0    0    0  501 -0.00000000000E+00 -0.00000000000E+00 -0.26991541528E+03  0.26991541528E+03  0.00000000000E+00 0. -1.
         35    2    1    2    0    0  0.00000000000E+00  0.00000000000E+00 -0.19921021216E+03  0.34062061840E+03  0.27629277415E+03 0.  0.
         25    1    3    3    0    0 -0.47510258285E+02 -0.50715254856E+00 -0.38871209990E+02  0.13479040326E+03  0.12000000000E+03 0.  0.
         25    1    3    3    0    0  0.47510258285E+02  0.50715254856E+00 -0.16033900217E+03  0.20583021513E+03  0.12000000000E+03 0.  0.
<mgrwt>
<rscale>  0 0.27629277E+03</rscale>
<asrwt>0</asrwt>
<pdfrwt beam="1">  1        4 0.10877724E-01 0.27629277E+03</pdfrwt>
<pdfrwt beam="2">  1       -4 0.41525448E-01 0.27629277E+03</pdfrwt>
<totfact> 0.69656343E+02</totfact>
</mgrwt>
</event>
<event>
 5    1  0.1139158E+001  0.2739071E+03  0.7818608E-02  0.1099064E+00
         -2   -1    0    0    0  501 -0.00000000000E+00  0.00000000000E+00  0.73153687343E+01  0.73153687343E+01  0.00000000000E+00 0. -1.
          2   -1    0    0  501    0  0.00000000000E+00 -0.00000000000E+00 -0.25639549663E+04  0.25639549663E+04  0.00000000000E+00 0. -1.
         35    2    1    2    0    0  0.00000000000E+00  0.00000000000E+00 -0.25566395976E+04  0.25712703351E+04  0.27390710832E+03 0.  0.
         25    1    3    3    0    0 -0.58136867091E+02  0.75195108935E+00 -0.15715631926E+04  0.15772099826E+04  0.12000000000E+03 0.  0.
         25    1    3    3    0    0  0.58136867091E+02 -0.75195108935E+00 -0.98507640499E+03  0.99406035250E+03  0.12000000000E+03 0.  0.
<mgrwt>
<rscale>  0 0.27390711E+03</rscale>
<asrwt>0</asrwt>
<pdfrwt beam="1">  1        2 0.39445460E+00 0.27390711E+03</pdfrwt>
<pdfrwt beam="2">  1       -2 0.11254414E-02 0.27390711E+03</pdfrwt>
<totfact> 0.66391675E+03</totfact>
</mgrwt>
</event>
<event>
 5    1  0.1139158E+001  0.2714671E+03  0.7818608E-02  0.1100443E+00
         -2   -1    0    0    0  501 -0.00000000000E+00  0.00000000000E+00  0.34229121169E+02  0.34229121169E+02  0.00000000000E+00 0. -1.
          2   -1    0    0  501    0  0.00000000000E+00 -0.00000000000E+00 -0.53824314450E+03  0.53824314450E+03  0.00000000000E+00 0. -1.
         35    2    1    2    0    0  0.00000000000E+00  0.00000000000E+00 -0.50401402334E+03  0.57247226567E+03  0.27146705002E+03 0.  0.
         25    1    3    3    0    0  0.16126534098E+01  0.12228207941E+02 -0.12079465940E+03  0.17071461408E+03  0.12000000000E+03 0.  0.
         25    1    3    3    0    0 -0.16126534098E+01 -0.12228207941E+02 -0.38321936394E+03  0.40175765160E+03  0.12000000000E+03 0.  0.
<mgrwt>
<rscale>  0 0.27146705E+03</rscale>
<asrwt>0</asrwt>
<pdfrwt beam="1">  1        2 0.82806634E-01 0.27146705E+03</pdfrwt>
<pdfrwt beam="2">  1       -2 0.52660188E-02 0.27146705E+03</pdfrwt>
<totfact> 0.10289640E+04</totfact>
</mgrwt>
</event>
<event>
 5    1  0.1139158E+001  0.2743623E+03  0.7818608E-02  0.1098809E+00
          1   -1    0    0  501    0  0.00000000000E+00  0.00000000000E+00  0.15576007053E+04  0.15576007053E+04  0.00000000000E+00 0. -1.
         -1   -1    0    0    0  501 -0.00000000000E+00 -0.00000000000E+00 -0.12081828841E+02  0.12081828841E+02  0.00000000000E+00 0. -1.
         35    2    1    2    0    0  0.00000000000E+00  0.00000000000E+00  0.15455188764E+04  0.15696825341E+04  0.27436227964E+03 0.  0.
         25    1    3    3    0    0 -0.65625232123E+02  0.98092443807E+01  0.79548115917E+03  0.80721321034E+03  0.12000000000E+03 0.  0.
         25    1    3    3    0    0  0.65625232123E+02 -0.98092443807E+01  0.75003771725E+03  0.76246932376E+03  0.12000000000E+03 0.  0.
<mgrwt>
<rscale>  0 0.27436228E+03</rscale>
<asrwt>0</asrwt>
<pdfrwt beam="1">  1        1 0.23963072E+00 0.27436228E+03</pdfrwt>
<pdfrwt beam="2">  1       -1 0.18587441E-02 0.27436228E+03</pdfrwt>
<totfact> 0.50033243E+03</totfact>
</mgrwt>
</event>
<event>
 5    1  0.1139158E+001  0.2833888E+03  0.7818608E-02  0.1093852E+00
         -1   -1    0    0    0  501 -0.00000000000E+00  0.00000000000E+00  0.23487711512E+03  0.23487711512E+03  0.00000000000E+00 0. -1.
          1   -1    0    0  501    0  0.00000000000E+00 -0.00000000000E+00 -0.85480059088E+02  0.85480059088E+02  0.00000000000E+00 0. -1.
         35    2    1    2    0    0  0.00000000000E+00  0.00000000000E+00  0.14939705603E+03  0.32035717421E+03  0.28338884720E+03 0.  0.
         25    1    3    3    0    0  0.17768526902E+02 -0.22408670745E+02 -0.41048507864E+01  0.12342900337E+03  0.12000000000E+03 0.  0.
         25    1    3    3    0    0 -0.17768526902E+02  0.22408670745E+02  0.15350190682E+03  0.19692817084E+03  0.12000000000E+03 0.  0.
<mgrwt>
<rscale>  0 0.28338885E+03</rscale>
<asrwt>0</asrwt>
<pdfrwt beam="1">  1        1 0.13150778E-01 0.28338885E+03</pdfrwt>
<pdfrwt beam="2">  1       -1 0.36134940E-01 0.28338885E+03</pdfrwt>
<totfact> 0.32709894E+03</totfact>
</mgrwt>
</event>
<event>
 5    1  0.1139158E+001  0.2759398E+03  0.7818608E-02  0.1097927E+00
          2   -1    0    0  501    0  0.00000000000E+00  0.00000000000E+00  0.13050532179E+04  0.13050532179E+04  0.00000000000E+00 0.  1.
         -2   -1    0    0    0  501 -0.00000000000E+00 -0.00000000000E+00 -0.14586141710E+02  0.14586141710E+02  0.00000000000E+00 0.  1.
         35    2    1    2    0    0  0.00000000000E+00  0.00000000000E+00  0.12904670762E+04  0.13196393597E+04  0.27593978456E+03 0.  0.
         25    1    3    3    0    0  0.48414873137E+02 -0.31966773545E+02  0.81564996050E+03  0.82646883342E+03  0.12000000000E+03 0.  0.
         25    1    3    3    0    0 -0.48414873137E+02  0.31966773545E+02  0.47481711573E+03  0.49317052623E+03  0.12000000000E+03 0.  0.
<mgrwt>
<rscale>  0 0.27593978E+03</rscale>
<asrwt>0</asrwt>
<pdfrwt beam="1">  1        2 0.20077733E+00 0.27593978E+03</pdfrwt>
<pdfrwt beam="2">  1       -2 0.22440228E-02 0.27593978E+03</pdfrwt>
<totfact> 0.11362399E+04</totfact>
</mgrwt>
</event>
<event>
 5    1  0.1139158E+001  0.2701070E+03  0.7818608E-02  0.1101218E+00
          2   -1    0    0  501    0  0.00000000000E+00  0.00000000000E+00  0.13357587733E+03  0.13357587733E+03  0.00000000000E+00 0.  1.
         -2   -1    0    0    0  501 -0.00000000000E+00 -0.00000000000E+00 -0.13654743528E+03  0.13654743528E+03  0.00000000000E+00 0.  1.
         35    2    1    2    0    0  0.00000000000E+00  0.00000000000E+00 -0.29715579507E+01  0.27012331260E+03  0.27010696743E+03 0.  0.
         25    1    3    3    0    0  0.20508957794E+02  0.56853699160E+02 -0.15142483399E+02  0.13521189024E+03  0.12000000000E+03 0.  0.
         25    1    3    3    0    0 -0.20508957794E+02 -0.56853699160E+02  0.12170925448E+02  0.13491142236E+03  0.12000000000E+03 0.  0.
<mgrwt>
<rscale>  0 0.27010697E+03</rscale>
<asrwt>0</asrwt>
<pdfrwt beam="1">  1        2 0.20550135E-01 0.27010697E+03</pdfrwt>
<pdfrwt beam="2">  1       -2 0.21007298E-01 0.27010697E+03</pdfrwt>
<totfact> 0.51540353E+03</totfact>
</mgrwt>
</event>
<event>
 5    1  0.1139158E+001  0.2750139E+03  0.7818608E-02  0.1098444E+00
         -3   -1    0    0    0  501 -0.00000000000E+00  0.00000000000E+00  0.14666065905E+04  0.14666065905E+04  0.00000000000E+00 0. -1.
          3   -1    0    0  501    0  0.00000000000E+00 -0.00000000000E+00 -0.12892457852E+02  0.12892457852E+02  0.00000000000E+00 0. -1.
         35    2    1    2    0    0  0.00000000000E+00  0.00000000000E+00  0.14537141326E+04  0.14794990483E+04  0.27501391712E+03 0.  0.
         25    1    3    3    0    0 -0.56894432439E+02 -0.30428064747E+02  0.62688677938E+03  0.64152153333E+03  0.12000000000E+03 0.  0.
         25    1    3    3    0    0  0.56894432439E+02  0.30428064747E+02  0.82682735322E+03  0.83797751498E+03  0.12000000000E+03 0.  0.
<mgrwt>
<rscale>  0 0.27501392E+03</rscale>
<asrwt>0</asrwt>
<pdfrwt beam="1">  1        3 0.19834562E-02 0.27501392E+03</pdfrwt>
<pdfrwt beam="2">  1       -3 0.22563165E+00 0.27501392E+03</pdfrwt>
<totfact> 0.27478628E+02</totfact>
</mgrwt>
</event>
<event>
 5    1  0.1139158E+001  0.2750260E+03  0.7818608E-02  0.1098437E+00
          1   -1    0    0  501    0  0.00000000000E+00  0.00000000000E+00  0.77685026537E+02  0.77685026537E+02  0.00000000000E+00 0.  1.
         -1   -1    0    0    0  501 -0.00000000000E+00 -0.00000000000E+00 -0.24341655327E+03  0.24341655327E+03  0.00000000000E+00 0.  1.
         35    2    1    2    0    0  0.00000000000E+00  0.00000000000E+00 -0.16573152673E+03  0.32110157980E+03  0.27502597259E+03 0.  0.
         25    1    3    3    0    0 -0.14387167361E+02 -0.25464291383E+02 -0.12286549846E+02  0.12412243966E+03  0.12000000000E+03 0.  0.
         25    1    3    3    0    0  0.14387167361E+02  0.25464291383E+02 -0.15344497688E+03  0.19697914014E+03  0.12000000000E+03 0.  0.
<mgrwt>
<rscale>  0 0.27502597E+03</rscale>
<asrwt>0</asrwt>
<pdfrwt beam="1">  1        1 0.11951543E-01 0.27502597E+03</pdfrwt>
<pdfrwt beam="2">  1       -1 0.37448700E-01 0.27502597E+03</pdfrwt>
<totfact> 0.34856742E+03</totfact>
</mgrwt>
</event>
<event>
 4    1  0.1139158E+001  0.3028217E+03  0.7818608E-02  0.1083839E+00
         -1   -1    0    0    0  501 -0.00000000000E+00  0.00000000000E+00  0.10935288801E+03  0.10935288801E+03  0.00000000000E+00 0. -1.
          1   -1    0    0  501    0  0.00000000000E+00 -0.00000000000E+00 -0.20964458151E+03  0.20964458151E+03  0.00000000000E+00 0. -1.
         25    1    1    2    0    0 -0.12890637758E+02 -0.56496753206E+02  0.25577091420E+02  0.13569170671E+03  0.12000000000E+03 0.  0.
         25    1    1    2    0    0  0.12890637758E+02  0.56496753206E+02 -0.12586878492E+03  0.18330576282E+03  0.12000000000E+03 0.  0.
<mgrwt>
<rscale>  0 0.30282167E+03</rscale>
<asrwt>0</asrwt>
<pdfrwt beam="1">  1        1 0.32253012E-01 0.30282167E+03</pdfrwt>
<pdfrwt beam="2">  1       -1 0.16823521E-01 0.30282167E+03</pdfrwt>
<totfact> 0.36844590E+03</totfact>
</mgrwt>
</event>
<event>
 5    1  0.1139158E+001  0.2751394E+03  0.7818608E-02  0.1098374E+00
         -2   -1    0    0    0  501 -0.00000000000E+00  0.00000000000E+00  0.18392737966E+02  0.18392737966E+02  0.00000000000E+00 0. -1.
          2   -1    0    0  501    0  0.00000000000E+00 -0.00000000000E+00 -0.10289616001E+04  0.10289616001E+04  0.00000000000E+00 0. -1.
         35    2    1    2    0    0  0.00000000000E+00  0.00000000000E+00 -0.10105688621E+04  0.10473543380E+04  0.27513939076E+03 0.  0.
         25    1    3    3    0    0  0.59630857863E+02 -0.18959615158E+02 -0.59931015154E+03  0.61440049150E+03  0.12000000000E+03 0.  0.
         25    1    3    3    0    0 -0.59630857863E+02  0.18959615158E+02 -0.41125871058E+03  0.43295384655E+03  0.12000000000E+03 0.  0.
<mgrwt>
<rscale>  0 0.27513939E+03</rscale>
<asrwt>0</asrwt>
<pdfrwt beam="1">  1        2 0.15830180E+00 0.27513939E+03</pdfrwt>
<pdfrwt beam="2">  1       -2 0.28296517E-02 0.27513939E+03</pdfrwt>
<totfact> 0.11622105E+04</totfact>
</mgrwt>
</event>
<event>
 5    1  0.1139158E+001  0.2746564E+03  0.7818608E-02  0.1098644E+00
         -2   -1    0    0    0  501 -0.00000000000E+00  0.00000000000E+00  0.41307762751E+02  0.41307762751E+02  0.00000000000E+00 0. -1.
          2   -1    0    0  501    0  0.00000000000E+00 -0.00000000000E+00 -0.45654936993E+03  0.45654936993E+03  0.00000000000E+00 0. -1.
         35    2    1    2    0    0  0.00000000000E+00  0.00000000000E+00 -0.41524160718E+03  0.49785713268E+03  0.27465638938E+03 0.  0.
         25    1    3    3    0    0 -0.38203372433E+02 -0.22226721254E+02 -0.11688828927E+03  0.17325240827E+03  0.12000000000E+03 0.  0.
         25    1    3    3    0    0  0.38203372433E+02  0.22226721254E+02 -0.29835331790E+03  0.32460472440E+03  0.12000000000E+03 0.  0.
<mgrwt>
<rscale>  0 0.27465639E+03</rscale>
<asrwt>0</asrwt>
<pdfrwt beam="1">  1        2 0.70238366E-01 0.27465639E+03</pdfrwt>
<pdfrwt beam="2">  1       -2 0.63550403E-02 0.27465639E+03</pdfrwt>
<totfact> 0.92790122E+03</totfact>
</mgrwt>
</event>
<event>
 5    1  0.1139158E+001  0.2751040E+03  0.7818608E-02  0.1098393E+00
         -1   -1    0    0    0  501 -0.00000000000E+00  0.00000000000E+00  0.28586341419E+02  0.28586341419E+02  0.00000000000E+00 0.  1.
          1   -1    0    0  501    0  0.00000000000E+00 -0.00000000000E+00 -0.66187393402E+03  0.66187393402E+03  0.00000000000E+00 0.  1.
         35    2    1    2    0    0  0.00000000000E+00  0.00000000000E+00 -0.63328759260E+03  0.69046027544E+03  0.27510401127E+03 0.  0.
         25    1    3    3    0    0 -0.19190407332E+02 -0.50573198898E+02 -0.41686792612E+03  0.43715533624E+03  0.12000000000E+03 0.  0.
         25    1    3    3    0    0  0.19190407332E+02  0.50573198898E+02 -0.21641966648E+03  0.25330493920E+03  0.12000000000E+03 0.  0.
<mgrwt>
<rscale>  0 0.27510401E+03</rscale>
<asrwt>0</asrwt>
<pdfrwt beam="1">  1        1 0.10182675E+00 0.27510401E+03</pdfrwt>
<pdfrwt beam="2">  1       -1 0.43978989E-02 0.27510401E+03</pdfrwt>
<totfact> 0.65075747E+03</totfact>
</mgrwt>
</event>
<event>
 5    1  0.1139158E+001  0.2749779E+03  0.7818608E-02  0.1098464E+00
          1   -1    0    0  501    0  0.00000000000E+00  0.00000000000E+00  0.45660119458E+02  0.45660119458E+02  0.00000000000E+00 0. -1.
         -1   -1    0    0    0  501 -0.00000000000E+00 -0.00000000000E+00 -0.41399836348E+03  0.41399836348E+03  0.00000000000E+00 0. -1.
         35    2    1    2    0    0  0.00000000000E+00  0.00000000000E+00 -0.36833824403E+03  0.45965848294E+03  0.27497792444E+03 0.  0.
         25    1    3    3    0    0  0.28171728605E+02 -0.58643437550E+02 -0.15667539191E+03  0.20779768403E+03  0.12000000000E+03 0.  0.
         25    1    3    3    0    0 -0.28171728605E+02  0.58643437550E+02 -0.21166285212E+03  0.25186079891E+03  0.12000000000E+03 0.  0.
<mgrwt>
<rscale>  0 0.27497792E+03</rscale>
<asrwt>0</asrwt>
<pdfrwt beam="1">  1        1 0.70246337E-02 0.27497792E+03</pdfrwt>
<pdfrwt beam="2">  1       -1 0.63692057E-01 0.27497792E+03</pdfrwt>
<totfact> 0.26810811E+03</totfact>
</mgrwt>
</event>
<event>
 5    1  0.1139158E+001  0.2767298E+03  0.7818608E-02  0.1097489E+00
          1   -1    0    0  501    0  0.00000000000E+00  0.00000000000E+00  0.10853516219E+03  0.10853516219E+03  0.00000000000E+00 0. -1.
         -1   -1    0    0    0  501 -0.00000000000E+00 -0.00000000000E+00 -0.17639305569E+03  0.17639305569E+03  0.00000000000E+00 0. -1.
         35    2    1    2    0    0  0.00000000000E+00  0.00000000000E+00 -0.67857893497E+02  0.28492821789E+03  0.27672982426E+03 0.  0.
         25    1    3    3    0    0  0.15713954496E+01  0.58121316903E+02  0.41016538573E+01  0.13340682264E+03  0.12000000000E+03 0.  0.
         25    1    3    3    0    0 -0.15713954496E+01 -0.58121316903E+02 -0.71959547354E+02  0.15152139525E+03  0.12000000000E+03 0.  0.
<mgrwt>
<rscale>  0 0.27672982E+03</rscale>
<asrwt>0</asrwt>
<pdfrwt beam="1">  1        1 0.16697717E-01 0.27672982E+03</pdfrwt>
<pdfrwt beam="2">  1       -1 0.27137393E-01 0.27672982E+03</pdfrwt>
<totfact> 0.39002923E+03</totfact>
</mgrwt>
</event>
<event>
 5    1  0.1139158E+001  0.2750466E+03  0.7818608E-02  0.1098426E+00
          2   -1    0    0  501    0  0.00000000000E+00  0.00000000000E+00  0.11777236888E+04  0.11777236888E+04  0.00000000000E+00 0.  1.
         -2   -1    0    0    0  501 -0.00000000000E+00 -0.00000000000E+00 -0.16058656893E+02  0.16058656893E+02  0.00000000000E+00 0.  1.
         35    2    1    2    0    0  0.00000000000E+00  0.00000000000E+00  0.11616650319E+04  0.11937823457E+04  0.27504661883E+03 0.  0.
         25    1    3    3    0    0 -0.46720539904E+02  0.10152611283E+02  0.78564533421E+03  0.79619374246E+03  0.12000000000E+03 0.  0.
         25    1    3    3    0    0  0.46720539904E+02 -0.10152611283E+02  0.37601969768E+03  0.39758860322E+03  0.12000000000E+03 0.  0.
<mgrwt>
<rscale>  0 0.27504662E+03</rscale>
<asrwt>0</asrwt>
<pdfrwt beam="1">  1        2 0.18118819E+00 0.27504662E+03</pdfrwt>
<pdfrwt beam="2">  1       -2 0.24705635E-02 0.27504662E+03</pdfrwt>
<totfact> 0.11622253E+04</totfact>
</mgrwt>
</event>
<event>
 5    1  0.1139158E+001  0.2743572E+03  0.7818608E-02  0.1098811E+00
         -1   -1    0    0    0  501 -0.00000000000E+00  0.00000000000E+00  0.85341811338E+02  0.85341811338E+02  0.00000000000E+00 0.  1.
          1   -1    0    0  501    0  0.00000000000E+00 -0.00000000000E+00 -0.22050117651E+03  0.22050117651E+03  0.00000000000E+00 0.  1.
         35    2    1    2    0    0  0.00000000000E+00  0.00000000000E+00 -0.13515936517E+03  0.30584298785E+03  0.27435721099E+03 0.  0.
         25    1    3    3    0    0 -0.21520729965E+02  0.62580233105E+02 -0.74500407606E+02  0.15597992860E+03  0.12000000000E+03 0.  0.
         25    1    3    3    0    0  0.21520729965E+02 -0.62580233105E+02 -0.60658957568E+02  0.14986305925E+03  0.12000000000E+03 0.  0.
<mgrwt>
<rscale>  0 0.27435721E+03</rscale>
<asrwt>0</asrwt>
<pdfrwt beam="1">  1        1 0.33923257E-01 0.27435721E+03</pdfrwt>
<pdfrwt beam="2">  1       -1 0.13129510E-01 0.27435721E+03</pdfrwt>
<totfact> 0.51113587E+03</totfact>
</mgrwt>
</event>
<event>
 5    1  0.1139158E+001  0.2736487E+03  0.7818608E-02  0.1099209E+00
         -1   -1    0    0    0  501 -0.00000000000E+00  0.00000000000E+00  0.52178480981E+01  0.52178480981E+01  0.00000000000E+00 0.  1.
          1   -1    0    0  501    0  0.00000000000E+00 -0.00000000000E+00 -0.35878593420E+04  0.35878593420E+04  0.00000000000E+00 0.  1.
         35    2    1    2    0    0  0.00000000000E+00  0.00000000000E+00 -0.35826414939E+04  0.35930771901E+04  0.27364871674E+03 0.  0.
         25    1    3    3    0    0 -0.32665546233E+02  0.56482637292E+02 -0.16866249239E+04  0.16921468495E+04  0.12000000000E+03 0.  0.
         25    1    3    3    0    0  0.32665546233E+02 -0.56482637292E+02 -0.18960165700E+04  0.19009303406E+04  0.12000000000E+03 0.  0.
<mgrwt>
<rscale>  0 0.27364872E+03</rscale>
<asrwt>0</asrwt>
<pdfrwt beam="1">  1        1 0.55197742E+00 0.27364872E+03</pdfrwt>
<pdfrwt beam="2">  1       -1 0.80274722E-03 0.27364872E+03</pdfrwt>
<totfact> 0.69505668E+02</totfact>
</mgrwt>
</event>
<event>
 5    1  0.1139158E+001  0.2750043E+03  0.7818608E-02  0.1098449E+00
          2   -1    0    0  501    0  0.00000000000E+00  0.00000000000E+00  0.20677446075E+03  0.20677446075E+03  0.00000000000E+00 0. -1.
         -2   -1    0    0    0  501 -0.00000000000E+00 -0.00000000000E+00 -0.91437036228E+02  0.91437036228E+02  0.00000000000E+00 0. -1.
         35    2    1    2    0    0  0.00000000000E+00  0.00000000000E+00  0.11533742452E+03  0.29821149697E+03  0.27500431894E+03 0.  0.
         25    1    3    3    0    0  0.44393030146E+02 -0.50232455457E+02  0.61548815765E+02  0.15060643223E+03  0.12000000000E+03 0.  0.
         25    1    3    3    0    0 -0.44393030146E+02  0.50232455457E+02  0.53788608753E+02  0.14760506475E+03  0.12000000000E+03 0.  0.
<mgrwt>
<rscale>  0 0.27500432E+03</rscale>
<asrwt>0</asrwt>
<pdfrwt beam="1">  1        2 0.31811455E-01 0.27500432E+03</pdfrwt>
<pdfrwt beam="2">  1       -2 0.14067236E-01 0.27500432E+03</pdfrwt>
<totfact> 0.62114046E+03</totfact>
</mgrwt>
</event>
<event>
 5    1  0.1139158E+001  0.2711827E+03  0.7818608E-02  0.1100605E+00
          2   -1    0    0  501    0  0.00000000000E+00  0.00000000000E+00  0.11958911547E+04  0.11958911547E+04  0.00000000000E+00 0.  1.
         -2   -1    0    0    0  501 -0.00000000000E+00 -0.00000000000E+00 -0.15373489305E+02  0.15373489305E+02  0.00000000000E+00 0.  1.
         35    2    1    2    0    0  0.00000000000E+00  0.00000000000E+00  0.11805176654E+04  0.12112646440E+04  0.27118274190E+03 0.  0.
         25    1    3    3    0    0  0.32992528339E+02 -0.42789714479E+02  0.73606120129E+03  0.74773361476E+03  0.12000000000E+03 0.  0.
         25    1    3    3    0    0 -0.32992528339E+02  0.42789714479E+02  0.44445646408E+03  0.46353102923E+03  0.12000000000E+03 0.  0.
<mgrwt>
<rscale>  0 0.27118274E+03</rscale>
<asrwt>0</asrwt>
<pdfrwt beam="1">  1        2 0.18398318E+00 0.27118274E+03</pdfrwt>
<pdfrwt beam="2">  1       -2 0.23651531E-02 0.27118274E+03</pdfrwt>
<totfact> 0.12098944E+04</totfact>
</mgrwt>
</event>
<event>
 5    1  0.1139158E+001  0.2736325E+03  0.7818608E-02  0.1099218E+00
          2   -1    0    0  501    0  0.00000000000E+00  0.00000000000E+00  0.23027664324E+04  0.23027664324E+04  0.00000000000E+00 0.  1.
         -2   -1    0    0    0  501 -0.00000000000E+00 -0.00000000000E+00 -0.81287800518E+01  0.81287800518E+01  0.00000000000E+00 0.  1.
         35    2    1    2    0    0  0.00000000000E+00  0.00000000000E+00  0.22946376523E+04  0.23108952124E+04  0.27363246766E+03 0.  0.
         25    1    3    3    0    0 -0.60060960295E+02  0.16526747556E+01  0.92250507649E+03  0.93221546138E+03  0.12000000000E+03 0.  0.
         25    1    3    3    0    0  0.60060960295E+02 -0.16526747556E+01  0.13721325759E+04  0.13786797511E+04  0.12000000000E+03 0.  0.
<mgrwt>
<rscale>  0 0.27363247E+03</rscale>
<asrwt>0</asrwt>
<pdfrwt beam="1">  1        2 0.35427124E+00 0.27363247E+03</pdfrwt>
<pdfrwt beam="2">  1       -2 0.12505834E-02 0.27363247E+03</pdfrwt>
<totfact> 0.78975606E+03</totfact>
</mgrwt>
</event>
<event>
 5    1  0.1139158E+001  0.2752243E+03  0.7818608E-02  0.1098326E+00
          2   -1    0    0  501    0  0.00000000000E+00  0.00000000000E+00  0.42881160772E+03  0.42881160772E+03  0.00000000000E+00 0. -1.
         -2   -1    0    0    0  501 -0.00000000000E+00 -0.00000000000E+00 -0.44161833991E+02  0.44161833991E+02  0.00000000000E+00 0. -1.
         35    2    1    2    0    0  0.00000000000E+00  0.00000000000E+00  0.38464977373E+03  0.47297344171E+03  0.27522432330E+03 0.  0.
         25    1    3    3    0    0 -0.65400389603E+02  0.30020717634E+01  0.16510501275E+03  0.21434992100E+03  0.12000000000E+03 0.  0.
         25    1    3    3    0    0  0.65400389603E+02 -0.30020717634E+01  0.21954476098E+03  0.25862352072E+03  0.12000000000E+03 0.  0.
<mgrwt>
<rscale>  0 0.27522432E+03</rscale>
<asrwt>0</asrwt>
<pdfrwt beam="1">  1        2 0.65971014E-01 0.27522432E+03</pdfrwt>
<pdfrwt beam="2">  1       -2 0.67941286E-02 0.27522432E+03</pdfrwt>
<totfact> 0.89678402E+03</totfact>
</mgrwt>
</event>
<event>
 5    1  0.1139158E+001  0.2747989E+03  0.7818608E-02  0.1098564E+00
         -2   -1    0    0    0  501 -0.00000000000E+00  0.00000000000E+00  0.17462892846E+02  0.17462892846E+02  0.00000000000E+00 0. -1.
          2   -1    0    0  501    0  0.00000000000E+00 -0.00000000000E+00 -0.10810699801E+04  0.10810699801E+04  0.00000000000E+00 0. -1.
         35    2    1    2    0    0  0.00000000000E+00  0.00000000000E+00 -0.10636070873E+04  0.10985328730E+04  0.27479890263E+03 0.  0.
         25    1    3    3    0    0 -0.66231327013E+02 -0.49735447694E+01 -0.49901249972E+03  0.51751792211E+03  0.12000000000E+03 0.  0.
         25    1    3    3    0    0  0.66231327013E+02  0.49735447694E+01 -0.56459458756E+03  0.58101495087E+03  0.12000000000E+03 0.  0.
<mgrwt>
<rscale>  0 0.27479890E+03</rscale>
<asrwt>0</asrwt>
<pdfrwt beam="1">  1        2 0.16631851E+00 0.27479890E+03</pdfrwt>
<pdfrwt beam="2">  1       -2 0.26865980E-02 0.27479890E+03</pdfrwt>
<totfact> 0.11682869E+04</totfact>
</mgrwt>
</event>
<event>
 4    1  0.1139158E+001  0.2570054E+03  0.7818608E-02  0.1108956E+00
          1   -1    0    0  501    0  0.00000000000E+00  0.00000000000E+00  0.32050922074E+03  0.32050922074E+03  0.00000000000E+00 0.  1.
         -1   -1    0    0    0  501 -0.00000000000E+00 -0.00000000000E+00 -0.51520965666E+02  0.51520965666E+02  0.00000000000E+00 0.  1.
         25    1    1    2    0    0 -0.32413002425E+01  0.32276982999E+02  0.18163730809E+03  0.22010093445E+03  0.12000000000E+03 0.  0.
         25    1    1    2    0    0  0.32413002425E+01 -0.32276982999E+02  0.87350946988E+02  0.15192925195E+03  0.12000000000E+03 0.  0.
<mgrwt>
<rscale>  0 0.25700541E+03</rscale>
<asrwt>0</asrwt>
<pdfrwt beam="1">  1        1 0.49309110E-01 0.25700541E+03</pdfrwt>
<pdfrwt beam="2">  1       -1 0.79263026E-02 0.25700541E+03</pdfrwt>
<totfact> 0.69603625E+03</totfact>
</mgrwt>
</event>
<event>
 4    1  0.1139158E+001  0.3768522E+03  0.7818608E-02  0.1052103E+00
          2   -1    0    0  501    0  0.00000000000E+00  0.00000000000E+00  0.35130170505E+04  0.35130170505E+04  0.00000000000E+00 0. -1.
         -2   -1    0    0    0  501 -0.00000000000E+00 -0.00000000000E+00 -0.10106524490E+02  0.10106524490E+02  0.00000000000E+00 0. -1.
         25    1    1    2    0    0  0.44439825753E+02  0.13826947602E+03  0.17825275992E+04  0.17924558539E+04  0.12000000000E+03 0.  0.
         25    1    1    2    0    0 -0.44439825753E+02 -0.13826947602E+03  0.17203829267E+04  0.17306677211E+04  0.12000000000E+03 0.  0.
<mgrwt>
<rscale>  0 0.37685219E+03</rscale>
<asrwt>0</asrwt>
<pdfrwt beam="1">  1        2 0.54046319E+00 0.37685219E+03</pdfrwt>
<pdfrwt beam="2">  1       -2 0.15548527E-02 0.37685219E+03</pdfrwt>
<totfact> 0.10928223E+03</totfact>
</mgrwt>
</event>
<event>
 5    1  0.1139158E+001  0.2748504E+03  0.7818608E-02  0.1098535E+00
          1   -1    0    0  501    0  0.00000000000E+00  0.00000000000E+00  0.13755098235E+02  0.13755098235E+02  0.00000000000E+00 0. -1.
         -1   -1    0    0    0  501 -0.00000000000E+00 -0.00000000000E+00 -0.13729952619E+04  0.13729952619E+04  0.00000000000E+00 0. -1.
         35    2    1    2    0    0  0.00000000000E+00  0.00000000000E+00 -0.13592401637E+04  0.13867503602E+04  0.27485039352E+03 0.  0.
         25    1    3    3    0    0  0.17343854056E+02 -0.62393228657E+02 -0.59340883316E+03  0.60887418037E+03  0.12000000000E+03 0.  0.
         25    1    3    3    0    0 -0.17343854056E+02  0.62393228657E+02 -0.76583133054E+03  0.77787617980E+03  0.12000000000E+03 0.  0.
<mgrwt>
<rscale>  0 0.27485039E+03</rscale>
<asrwt>0</asrwt>
<pdfrwt beam="1">  1        1 0.21161695E-02 0.27485039E+03</pdfrwt>
<pdfrwt beam="2">  1       -1 0.21122998E+00 0.27485039E+03</pdfrwt>
<totfact> 0.78557713E+02</totfact>
</mgrwt>
</event>
<event>
 5    1  0.1139158E+001  0.2745785E+03  0.7818608E-02  0.1098687E+00
          2   -1    0    0  501    0  0.00000000000E+00  0.00000000000E+00  0.35920453407E+03  0.35920453407E+03  0.00000000000E+00 0.  1.
         -2   -1    0    0    0  501 -0.00000000000E+00 -0.00000000000E+00 -0.52472447065E+02  0.52472447065E+02  0.00000000000E+00 0.  1.
         35    2    1    2    0    0  0.00000000000E+00  0.00000000000E+00  0.30673208700E+03  0.41167698113E+03  0.27457851991E+03 0.  0.
         25    1    3    3    0    0  0.53845463067E+02 -0.23066837039E+02  0.10555423903E+03  0.17021489430E+03  0.12000000000E+03 0.  0.
         25    1    3    3    0    0 -0.53845463067E+02  0.23066837039E+02  0.20117784797E+03  0.24146208683E+03  0.12000000000E+03 0.  0.
<mgrwt>
<rscale>  0 0.27457852E+03</rscale>
<asrwt>0</asrwt>
<pdfrwt beam="1">  1        2 0.55262235E-01 0.27457852E+03</pdfrwt>
<pdfrwt beam="2">  1       -2 0.80726844E-02 0.27457852E+03</pdfrwt>
<totfact> 0.83139251E+03</totfact>
</mgrwt>
</event>
<event>
 5    1  0.1139158E+001  0.2748017E+03  0.7818608E-02  0.1098562E+00
         -4   -1    0    0    0  501 -0.00000000000E+00  0.00000000000E+00  0.91152861172E+02  0.91152861172E+02  0.00000000000E+00 0. -1.
          4   -1    0    0  501    0  0.00000000000E+00 -0.00000000000E+00 -0.20711361320E+03  0.20711361320E+03  0.00000000000E+00 0. -1.
         35    2    1    2    0    0  0.00000000000E+00  0.00000000000E+00 -0.11596075203E+03  0.29826647437E+03  0.27480173530E+03 0.  0.
         25    1    3    3    0    0  0.10662813866E+02  0.26997387641E+01  0.13671784884E+02  0.12127613900E+03  0.12000000000E+03 0.  0.
         25    1    3    3    0    0 -0.10662813866E+02 -0.26997387641E+01 -0.12963253691E+03  0.17699033537E+03  0.12000000000E+03 0.  0.
<mgrwt>
<rscale>  0 0.27480174E+03</rscale>
<asrwt>0</asrwt>
<pdfrwt beam="1">  1        4 0.31863632E-01 0.27480174E+03</pdfrwt>
<pdfrwt beam="2">  1       -4 0.14023517E-01 0.27480174E+03</pdfrwt>
<totfact> 0.75355717E+02</totfact>
</mgrwt>
</event>
<event>
 5    1  0.1139158E+001  0.2744252E+03  0.7818608E-02  0.1098773E+00
          2   -1    0    0  501    0  0.00000000000E+00  0.00000000000E+00  0.32909706489E+03  0.32909706489E+03  0.00000000000E+00 0. -1.
         -2   -1    0    0    0  501 -0.00000000000E+00 -0.00000000000E+00 -0.57208948006E+02  0.57208948006E+02  0.00000000000E+00 0. -1.
         35    2    1    2    0    0  0.00000000000E+00  0.00000000000E+00  0.27188811689E+03  0.38630601290E+03  0.27442519472E+03 0.  0.
         25    1    3    3    0    0  0.39360458894E+02  0.18611392955E+02  0.65115109908E+02  0.14330250246E+03  0.12000000000E+03 0.  0.
         25    1    3    3    0    0 -0.39360458894E+02 -0.18611392955E+02  0.20677300698E+03  0.24300351044E+03  0.12000000000E+03 0.  0.
<mgrwt>
<rscale>  0 0.27442519E+03</rscale>
<asrwt>0</asrwt>
<pdfrwt beam="1">  1        2 0.50630317E-01 0.27442519E+03</pdfrwt>
<pdfrwt beam="2">  1       -2 0.88013768E-02 0.27442519E+03</pdfrwt>
<totfact> 0.79790491E+03</totfact>
</mgrwt>
</event>
<event>
 5    1  0.1139158E+001  0.2753128E+03  0.7818608E-02  0.1098277E+00
          2   -1    0    0  501    0  0.00000000000E+00  0.00000000000E+00  0.19028083974E+04  0.19028083974E+04  0.00000000000E+00 0. -1.
         -2   -1    0    0    0  501 -0.00000000000E+00 -0.00000000000E+00 -0.99585894677E+01  0.99585894677E+01  0.00000000000E+00 0. -1.
         35    2    1    2    0    0  0.00000000000E+00  0.00000000000E+00  0.18928498079E+04  0.19127669869E+04  0.27531282328E+03 0.  0.
         25    1    3    3    0    0  0.30285865064E+02  0.58596111376E+02  0.10443221165E+04  0.10532613260E+04  0.12000000000E+03 0.  0.
         25    1    3    3    0    0 -0.30285865064E+02 -0.58596111376E+02  0.84852769140E+03  0.85950566081E+03  0.12000000000E+03 0.  0.
<mgrwt>
<rscale>  0 0.27531282E+03</rscale>
<asrwt>0</asrwt>
<pdfrwt beam="1">  1        2 0.29273946E+00 0.27531282E+03</pdfrwt>
<pdfrwt beam="2">  1       -2 0.15320922E-02 0.27531282E+03</pdfrwt>
<totfact> 0.95589598E+03</totfact>
</mgrwt>
</event>
<event>
 5    1  0.1139158E+001  0.2732734E+03  0.7818608E-02  0.1099421E+00
          1   -1    0    0  501    0  0.00000000000E+00  0.00000000000E+00  0.24547796650E+04  0.24547796650E+04  0.00000000000E+00 0.  1.
         -1   -1    0    0    0  501 -0.00000000000E+00 -0.00000000000E+00 -0.76054012420E+01  0.76054012420E+01  0.00000000000E+00 0.  1.
         35    2    1    2    0    0  0.00000000000E+00  0.00000000000E+00  0.24471742638E+04  0.24623850663E+04  0.27327337458E+03 0.  0.
         25    1    3    3    0    0  0.27996783898E+02 -0.32972383020E+02  0.78228469175E+03  0.79261613464E+03  0.12000000000E+03 0.  0.
         25    1    3    3    0    0 -0.27996783898E+02  0.32972383020E+02  0.16648895720E+04  0.16697689316E+04  0.12000000000E+03 0.  0.
<mgrwt>
<rscale>  0 0.27327337E+03</rscale>
<asrwt>0</asrwt>
<pdfrwt beam="1">  1        1 0.37765778E+00 0.27327337E+03</pdfrwt>
<pdfrwt beam="2">  1       -1 0.11700637E-02 0.27327337E+03</pdfrwt>
<totfact> 0.25456388E+03</totfact>
</mgrwt>
</event>
<event>
 5    1  0.1139158E+001  0.2763720E+03  0.7818608E-02  0.1097687E+00
         -2   -1    0    0    0  501 -0.00000000000E+00  0.00000000000E+00  0.56838011125E+02  0.56838011125E+02  0.00000000000E+00 0.  1.
          2   -1    0    0  501    0  0.00000000000E+00 -0.00000000000E+00 -0.33596133872E+03  0.33596133872E+03  0.00000000000E+00 0.  1.
         35    2    1    2    0    0  0.00000000000E+00  0.00000000000E+00 -0.27912332760E+03  0.39279934985E+03  0.27637202686E+03 0.  0.
         25    1    3    3    0    0 -0.36843501884E+02  0.74442417149E+01 -0.22099082598E+03  0.25426326029E+03  0.12000000000E+03 0.  0.
         25    1    3    3    0    0  0.36843501884E+02 -0.74442417149E+01 -0.58132501617E+02  0.13853608956E+03  0.12000000000E+03 0.  0.
<mgrwt>
<rscale>  0 0.27637203E+03</rscale>
<asrwt>0</asrwt>
<pdfrwt beam="1">  1        2 0.51686360E-01 0.27637203E+03</pdfrwt>
<pdfrwt beam="2">  1       -2 0.87443094E-02 0.27637203E+03</pdfrwt>
<totfact> 0.78859395E+03</totfact>
</mgrwt>
</event>
<event>
 5    1  0.1139158E+001  0.2776456E+03  0.7818608E-02  0.1096982E+00
         -2   -1    0    0    0  501 -0.00000000000E+00  0.00000000000E+00  0.58502464719E+02  0.58502464719E+02  0.00000000000E+00 0.  1.
          2   -1    0    0  501    0  0.00000000000E+00 -0.00000000000E+00 -0.32941813380E+03  0.32941813380E+03  0.00000000000E+00 0.  1.
         35    2    1    2    0    0  0.00000000000E+00  0.00000000000E+00 -0.27091566908E+03  0.38792059852E+03  0.27764562125E+03 0.  0.
         25    1    3    3    0    0  0.40656186886E+02  0.42399682344E+02 -0.82787449253E+02  0.15717639883E+03  0.12000000000E+03 0.  0.
         25    1    3    3    0    0 -0.40656186886E+02 -0.42399682344E+02 -0.18812821982E+03  0.23074419969E+03  0.12000000000E+03 0.  0.
<mgrwt>
<rscale>  0 0.27764562E+03</rscale>
<asrwt>0</asrwt>
<pdfrwt beam="1">  1        2 0.50679713E-01 0.27764562E+03</pdfrwt>
<pdfrwt beam="2">  1       -2 0.90003792E-02 0.27764562E+03</pdfrwt>
<totfact> 0.76983466E+03</totfact>
</mgrwt>
</event>
<event>
 5    1  0.1139158E+001  0.2804801E+03  0.7818608E-02  0.1095427E+00
         -2   -1    0    0    0  501 -0.00000000000E+00  0.00000000000E+00  0.19642268526E+03  0.19642268526E+03  0.00000000000E+00 0.  1.
          2   -1    0    0  501    0  0.00000000000E+00 -0.00000000000E+00 -0.10012731502E+03  0.10012731502E+03  0.00000000000E+00 0.  1.
         35    2    1    2    0    0  0.00000000000E+00  0.00000000000E+00  0.96295370245E+02  0.29655000028E+03  0.28048013180E+03 0.  0.
         25    1    3    3    0    0 -0.61704523794E+02 -0.30904401704E+02  0.71901434790E+02  0.15598829003E+03  0.12000000000E+03 0.  0.
         25    1    3    3    0    0  0.61704523794E+02  0.30904401704E+02  0.24393935455E+02  0.14056171025E+03  0.12000000000E+03 0.  0.
<mgrwt>
<rscale>  0 0.28048013E+03</rscale>
<asrwt>0</asrwt>
<pdfrwt beam="1">  1        2 0.15404202E-01 0.28048013E+03</pdfrwt>
<pdfrwt beam="2">  1       -2 0.30218875E-01 0.28048013E+03</pdfrwt>
<totfact> 0.37926017E+03</totfact>
</mgrwt>
</event>
<event>
 5    1  0.1139158E+001  0.2742228E+03  0.7818608E-02  0.1098887E+00
         -2   -1    0    0    0  501 -0.00000000000E+00  0.00000000000E+00  0.21285127701E+03  0.21285127701E+03  0.00000000000E+00 0.  1.
          2   -1    0    0  501    0  0.00000000000E+00 -0.00000000000E+00 -0.88322412523E+02  0.88322412523E+02  0.00000000000E+00 0.  1.
         35    2    1    2    0    0  0.00000000000E+00  0.00000000000E+00  0.12452886449E+03  0.30117368954E+03  0.27422281666E+03 0.  0.
         25    1    3    3    0    0  0.50747345602E+01  0.43102287290E+02  0.71751798957E+01  0.12780861985E+03  0.12000000000E+03 0.  0.
         25    1    3    3    0    0 -0.50747345602E+01 -0.43102287290E+02  0.11735368459E+03  0.17336506969E+03  0.12000000000E+03 0.  0.
<mgrwt>
<rscale>  0 0.27422282E+03</rscale>
<asrwt>0</asrwt>
<pdfrwt beam="1">  1        2 0.13588063E-01 0.27422282E+03</pdfrwt>
<pdfrwt beam="2">  1       -2 0.32746350E-01 0.27422282E+03</pdfrwt>
<totfact> 0.37987164E+03</totfact>
</mgrwt>
</event>
<event>
 5    1  0.1139158E+001  0.2753492E+03  0.7818608E-02  0.1098257E+00
          1   -1    0    0  501    0  0.00000000000E+00  0.00000000000E+00  0.50860242663E+03  0.50860242663E+03  0.00000000000E+00 0. -1.
         -1   -1    0    0    0  501 -0.00000000000E+00 -0.00000000000E+00 -0.37267409359E+02  0.37267409359E+02  0.00000000000E+00 0. -1.
         35    2    1    2    0    0  0.00000000000E+00  0.00000000000E+00  0.47133501727E+03  0.54586983599E+03  0.27534919527E+03 0.  0.
         25    1    3    3    0    0 -0.27745299043E+01  0.30072129224E+02  0.11602349123E+03  0.16962747858E+03  0.12000000000E+03 0.  0.
         25    1    3    3    0    0  0.27745299043E+01 -0.30072129224E+02  0.35531152604E+03  0.37624235741E+03  0.12000000000E+03 0.  0.
<mgrwt>
<rscale>  0 0.27534920E+03</rscale>
<asrwt>0</asrwt>
<pdfrwt beam="1">  1        1 0.78246522E-01 0.27534920E+03</pdfrwt>
<pdfrwt beam="2">  1       -1 0.57334480E-02 0.27534920E+03</pdfrwt>
<totfact> 0.62879391E+03</totfact>
</mgrwt>
</event>
<event>
 5    1  0.1139158E+001  0.2766770E+03  0.7818608E-02  0.1097518E+00
          2   -1    0    0  501    0  0.00000000000E+00  0.00000000000E+00  0.59994831839E+03  0.59994831839E+03  0.00000000000E+00 0.  1.
         -2   -1    0    0    0  501 -0.00000000000E+00 -0.00000000000E+00 -0.31898638083E+02  0.31898638083E+02  0.00000000000E+00 0.  1.
         35    2    1    2    0    0  0.00000000000E+00  0.00000000000E+00  0.56804968031E+03  0.63184695647E+03  0.27667695442E+03 0.  0.
         25    1    3    3    0    0  0.17200875683E+02 -0.63587593721E+02  0.32960063937E+03  0.35689751145E+03  0.12000000000E+03 0.  0.
         25    1    3    3    0    0 -0.17200875683E+02  0.63587593721E+02  0.23844904093E+03  0.27494944503E+03  0.12000000000E+03 0.  0.
<mgrwt>
<rscale>  0 0.27667695E+03</rscale>
<asrwt>0</asrwt>
<pdfrwt beam="1">  1        2 0.92299733E-01 0.27667695E+03</pdfrwt>
<pdfrwt beam="2">  1       -2 0.49074832E-02 0.27667695E+03</pdfrwt>
<totfact> 0.10121199E+04</totfact>
</mgrwt>
</event>
<event>
 5    1  0.1139158E+001  0.2884671E+03  0.7818608E-02  0.1091152E+00
          1   -1    0    0  501    0  0.00000000000E+00  0.00000000000E+00  0.13804937604E+04  0.13804937604E+04  0.00000000000E+00 0.  1.
         -1   -1    0    0    0  501 -0.00000000000E+00 -0.00000000000E+00 -0.15069479397E+02  0.15069479397E+02  0.00000000000E+00 0.  1.
         35    2    1    2    0    0  0.00000000000E+00  0.00000000000E+00  0.13654242810E+04  0.13955632398E+04  0.28846713699E+03 0.  0.
         25    1    3    3    0    0 -0.62181452710E+02  0.46728756801E+02  0.77363460815E+03  0.78674050150E+03  0.12000000000E+03 0.  0.
         25    1    3    3    0    0  0.62181452710E+02 -0.46728756801E+02  0.59178967289E+03  0.60882273834E+03  0.12000000000E+03 0.  0.
<mgrwt>
<rscale>  0 0.28846714E+03</rscale>
<asrwt>0</asrwt>
<pdfrwt beam="1">  1        1 0.21238356E+00 0.28846714E+03</pdfrwt>
<pdfrwt beam="2">  1       -1 0.23183825E-02 0.28846714E+03</pdfrwt>
<totfact> 0.47521582E+03</totfact>
</mgrwt>
</event>
<event>
 5    1  0.1139158E+001  0.2772531E+03  0.7818608E-02  0.1097199E+00
          1   -1    0    0  501    0  0.00000000000E+00  0.00000000000E+00  0.38165490987E+03  0.38165490987E+03  0.00000000000E+00 0. -1.
         -1   -1    0    0    0  501 -0.00000000000E+00 -0.00000000000E+00 -0.50352599442E+02  0.50352599442E+02  0.00000000000E+00 0. -1.
         35    2    1    2    0    0  0.00000000000E+00  0.00000000000E+00  0.33130231043E+03  0.43200750931E+03  0.27725307429E+03 0.  0.
         25    1    3    3    0    0  0.60671181666E+02  0.33699541194E+02  0.16438008546E+03  0.21502898376E+03  0.12000000000E+03 0.  0.
         25    1    3    3    0    0 -0.60671181666E+02 -0.33699541194E+02  0.16692222497E+03  0.21697852555E+03  0.12000000000E+03 0.  0.
<mgrwt>
<rscale>  0 0.27725307E+03</rscale>
<asrwt>0</asrwt>
<pdfrwt beam="1">  1        1 0.58716138E-01 0.27725307E+03</pdfrwt>
<pdfrwt beam="2">  1       -1 0.77465540E-02 0.27725307E+03</pdfrwt>
<totfact> 0.57924666E+03</totfact>
</mgrwt>
</event>
<event>
 5    1  0.1139158E+001  0.2742867E+03  0.7818608E-02  0.1098851E+00
          2   -1    0    0  501    0  0.00000000000E+00  0.00000000000E+00  0.61721874434E+02  0.61721874434E+02  0.00000000000E+00 0. -1.
         -2   -1    0    0    0  501 -0.00000000000E+00 -0.00000000000E+00 -0.30472655018E+03  0.30472655018E+03  0.00000000000E+00 0. -1.
         35    2    1    2    0    0  0.00000000000E+00  0.00000000000E+00 -0.24300467574E+03  0.36644842461E+03  0.27428666659E+03 0.  0.
         25    1    3    3    0    0  0.20254685050E+02  0.57336561501E+02 -0.85889331552E+02  0.15960799111E+03  0.12000000000E+03 0.  0.
         25    1    3    3    0    0 -0.20254685050E+02 -0.57336561501E+02 -0.15711534419E+03  0.20684043350E+03  0.12000000000E+03 0.  0.
<mgrwt>
<rscale>  0 0.27428667E+03</rscale>
<asrwt>0</asrwt>
<pdfrwt beam="1">  1        2 0.94956730E-02 0.27428667E+03</pdfrwt>
<pdfrwt beam="2">  1       -2 0.46881008E-01 0.27428667E+03</pdfrwt>
<totfact> 0.29755948E+03</totfact>
</mgrwt>
</event>
<event>
 5    1  0.1139158E+001  0.2744559E+03  0.7818608E-02  0.1098756E+00
          2   -1    0    0  501    0  0.00000000000E+00  0.00000000000E+00  0.38428260280E+04  0.38428260280E+04  0.00000000000E+00 0.  1.
         -2   -1    0    0    0  501 -0.00000000000E+00 -0.00000000000E+00 -0.49004340986E+01  0.49004340986E+01  0.00000000000E+00 0.  1.
         35    2    1    2    0    0  0.00000000000E+00  0.00000000000E+00  0.38379255939E+04  0.38477264621E+04  0.27445593965E+03 0.  0.
         25    1    3    3    0    0 -0.19482017350E+02  0.62204020220E+02  0.21084210544E+04  0.21128389034E+04  0.12000000000E+03 0.  0.
         25    1    3    3    0    0  0.19482017350E+02 -0.62204020220E+02  0.17295045395E+04  0.17348875587E+04  0.12000000000E+03 0.  0.
<mgrwt>
<rscale>  0 0.27445594E+03</rscale>
<asrwt>0</asrwt>
<pdfrwt beam="1">  1        2 0.59120160E+00 0.27445594E+03</pdfrwt>
<pdfrwt beam="2">  1       -2 0.75391601E-03 0.27445594E+03</pdfrwt>
<totfact> 0.18829669E+03</totfact>
</mgrwt>
</event>
<event>
 5    1  0.1139158E+001  0.2751404E+03  0.7818608E-02  0.1098373E+00
         -2   -1    0    0    0  501 -0.00000000000E+00  0.00000000000E+00  0.25847598416E+02  0.25847598416E+02  0.00000000000E+00 0. -1.
          2   -1    0    0  501    0  0.00000000000E+00 -0.00000000000E+00 -0.73219777115E+03  0.73219777115E+03  0.00000000000E+00 0. -1.
         35    2    1    2    0    0  0.00000000000E+00  0.00000000000E+00 -0.70635017273E+03  0.75804536956E+03  0.27514035654E+03 0.  0.
         25    1    3    3    0    0  0.10568063427E+02 -0.21828841663E+02 -0.52605482961E+03  0.54011282714E+03  0.12000000000E+03 0.  0.
         25    1    3    3    0    0 -0.10568063427E+02  0.21828841663E+02 -0.18029534312E+03  0.21793254242E+03  0.12000000000E+03 0.  0.
<mgrwt>
<rscale>  0 0.27514036E+03</rscale>
<asrwt>0</asrwt>
<pdfrwt beam="1">  1        2 0.11264582E+00 0.27514036E+03</pdfrwt>
<pdfrwt beam="2">  1       -2 0.39765532E-02 0.27514036E+03</pdfrwt>
<totfact> 0.10960472E+04</totfact>
</mgrwt>
</event>
<event>
 5    1  0.1139158E+001  0.2747376E+03  0.7818608E-02  0.1098598E+00
          1   -1    0    0  501    0  0.00000000000E+00  0.00000000000E+00  0.54761451706E+03  0.54761451706E+03  0.00000000000E+00 0.  1.
         -1   -1    0    0    0  501 -0.00000000000E+00 -0.00000000000E+00 -0.34458876676E+02  0.34458876676E+02  0.00000000000E+00 0.  1.
         35    2    1    2    0    0  0.00000000000E+00  0.00000000000E+00  0.51315564038E+03  0.58207339373E+03  0.27473755556E+03 0.  0.
         25    1    3    3    0    0  0.23679838659E+02  0.35632951275E+02  0.36543077537E+03  0.38700141287E+03  0.12000000000E+03 0.  0.
         25    1    3    3    0    0 -0.23679838659E+02 -0.35632951275E+02  0.14772486501E+03  0.19507198086E+03  0.12000000000E+03 0.  0.
<mgrwt>
<rscale>  0 0.27473756E+03</rscale>
<asrwt>0</asrwt>
<pdfrwt beam="1">  1        1 0.84248381E-01 0.27473756E+03</pdfrwt>
<pdfrwt beam="2">  1       -1 0.53013660E-02 0.27473756E+03</pdfrwt>
<totfact> 0.64045762E+03</totfact>
</mgrwt>
</event>
<event>
 5    1  0.1139158E+001  0.2749485E+03  0.7818608E-02  0.1098480E+00
         -2   -1    0    0    0  501 -0.00000000000E+00  0.00000000000E+00  0.23237723514E+02  0.23237723514E+02  0.00000000000E+00 0.  1.
          2   -1    0    0  501    0  0.00000000000E+00 -0.00000000000E+00 -0.81329716121E+03  0.81329716121E+03  0.00000000000E+00 0.  1.
         35    2    1    2    0    0  0.00000000000E+00  0.00000000000E+00 -0.79005943770E+03  0.83653488473E+03  0.27494853749E+03 0.  0.
         25    1    3    3    0    0 -0.97922909006E+01 -0.59633241359E+02 -0.48358529429E+03  0.50190312740E+03  0.12000000000E+03 0.  0.
         25    1    3    3    0    0  0.97922909006E+01  0.59633241359E+02 -0.30647414341E+03  0.33463175733E+03  0.12000000000E+03 0.  0.
<mgrwt>
<rscale>  0 0.27494854E+03</rscale>
<asrwt>0</asrwt>
<pdfrwt beam="1">  1        2 0.12512263E+00 0.27494854E+03</pdfrwt>
<pdfrwt beam="2">  1       -2 0.35750347E-02 0.27494854E+03</pdfrwt>
<totfact> 0.11269363E+04</totfact>
</mgrwt>
</event>
<event>
 5    1  0.1139158E+001  0.2755963E+03  0.7818608E-02  0.1098119E+00
         -2   -1    0    0    0  501 -0.00000000000E+00  0.00000000000E+00  0.13614909278E+03  0.13614909278E+03  0.00000000000E+00 0.  1.
          2   -1    0    0  501    0  0.00000000000E+00 -0.00000000000E+00 -0.13946722944E+03  0.13946722944E+03  0.00000000000E+00 0.  1.
         35    2    1    2    0    0  0.00000000000E+00  0.00000000000E+00 -0.33181366565E+01  0.27561632222E+03  0.27559634802E+03 0.  0.
         25    1    3    3    0    0 -0.65799292803E+02  0.94457966906E+01  0.11363655358E+02  0.13765138093E+03  0.12000000000E+03 0.  0.
         25    1    3    3    0    0  0.65799292803E+02 -0.94457966906E+01 -0.14681792014E+02  0.13796494129E+03  0.12000000000E+03 0.  0.
<mgrwt>
<rscale>  0 0.27559635E+03</rscale>
<asrwt>0</asrwt>
<pdfrwt beam="1">  1        2 0.21456497E-01 0.27559635E+03</pdfrwt>
<pdfrwt beam="2">  1       -2 0.20946014E-01 0.27559635E+03</pdfrwt>
<totfact> 0.49351368E+03</totfact>
</mgrwt>
</event>
<event>
 5    1  0.1139158E+001  0.2740925E+03  0.7818608E-02  0.1098960E+00
          2   -1    0    0  501    0  0.00000000000E+00  0.00000000000E+00  0.10324793093E+04  0.10324793093E+04  0.00000000000E+00 0.  1.
         -2   -1    0    0    0  501 -0.00000000000E+00 -0.00000000000E+00 -0.18190853437E+02  0.18190853437E+02  0.00000000000E+00 0.  1.
         35    2    1    2    0    0  0.00000000000E+00  0.00000000000E+00  0.10142884559E+04  0.10506701627E+04  0.27409253760E+03 0.  0.
         25    1    3    3    0    0  0.39394351392E+02 -0.52231446861E+02  0.46849834015E+03  0.48802739030E+03  0.12000000000E+03 0.  0.
         25    1    3    3    0    0 -0.39394351392E+02  0.52231446861E+02  0.54579011571E+03  0.56264277243E+03  0.12000000000E+03 0.  0.
<mgrwt>
<rscale>  0 0.27409254E+03</rscale>
<asrwt>0</asrwt>
<pdfrwt beam="1">  1        2 0.15884292E+00 0.27409254E+03</pdfrwt>
<pdfrwt beam="2">  1       -2 0.27985936E-02 0.27409254E+03</pdfrwt>
<totfact> 0.11755107E+04</totfact>
</mgrwt>
</event>
<event>
 5    1  0.1139158E+001  0.2745642E+03  0.7818608E-02  0.1098695E+00
          2   -1    0    0  501    0  0.00000000000E+00  0.00000000000E+00  0.73742797031E+03  0.73742797031E+03  0.00000000000E+00 0. -1.
         -2   -1    0    0    0  501 -0.00000000000E+00 -0.00000000000E+00 -0.25556901300E+02  0.25556901300E+02  0.00000000000E+00 0. -1.
         35    2    1    2    0    0  0.00000000000E+00  0.00000000000E+00  0.71187106901E+03  0.76298487161E+03  0.27456419179E+03 0.  0.
         25    1    3    3    0    0 -0.50005932951E+02 -0.40713504288E+02  0.40311057764E+03  0.42550713339E+03  0.12000000000E+03 0.  0.
         25    1    3    3    0    0  0.50005932951E+02  0.40713504288E+02  0.30876049137E+03  0.33747773821E+03  0.12000000000E+03 0.  0.
<mgrwt>
<rscale>  0 0.27456419E+03</rscale>
<asrwt>0</asrwt>
<pdfrwt beam="1">  1        2 0.11345044E+00 0.27456419E+03</pdfrwt>
<pdfrwt beam="2">  1       -2 0.39318315E-02 0.27456419E+03</pdfrwt>
<totfact> 0.11050172E+04</totfact>
</mgrwt>
</event>
<event>
 5    1  0.1139158E+001  0.2746478E+03  0.7818608E-02  0.1098649E+00
          1   -1    0    0  501    0  0.00000000000E+00  0.00000000000E+00  0.13498628867E+03  0.13498628867E+03  0.00000000000E+00 0. -1.
         -1   -1    0    0    0  501 -0.00000000000E+00 -0.00000000000E+00 -0.13970195662E+03  0.13970195662E+03  0.00000000000E+00 0. -1.
         35    2    1    2    0    0  0.00000000000E+00  0.00000000000E+00 -0.47156679492E+01  0.27468824529E+03  0.27464776456E+03 0.  0.
         25    1    3    3    0    0  0.50383534743E+02  0.35060387224E+02  0.23916122108E+02  0.13689306857E+03  0.12000000000E+03 0.  0.
         25    1    3    3    0    0 -0.50383534743E+02 -0.35060387224E+02 -0.28631790057E+02  0.13779517672E+03  0.12000000000E+03 0.  0.
<mgrwt>
<rscale>  0 0.27464776E+03</rscale>
<asrwt>0</asrwt>
<pdfrwt beam="1">  1        1 0.20767121E-01 0.27464776E+03</pdfrwt>
<pdfrwt beam="2">  1       -1 0.21492609E-01 0.27464776E+03</pdfrwt>
<totfact> 0.43275884E+03</totfact>
</mgrwt>
</event>
<event>
 5    1  0.1139158E+001  0.2748116E+03  0.7818608E-02  0.1098557E+00
         -3   -1    0    0    0  501 -0.00000000000E+00  0.00000000000E+00  0.91466358914E+03  0.91466358914E+03  0.00000000000E+00 0.  1.
          3   -1    0    0  501    0  0.00000000000E+00 -0.00000000000E+00 -0.20641862000E+02  0.20641862000E+02  0.00000000000E+00 0.  1.
         35    2    1    2    0    0  0.00000000000E+00  0.00000000000E+00  0.89402172714E+03  0.93530545114E+03  0.27481164155E+03 0.  0.
         25    1    3    3    0    0 -0.68029394307E+01  0.65435357497E+02  0.48901181688E+03  0.50779978638E+03  0.12000000000E+03 0.  0.
         25    1    3    3    0    0  0.68029394307E+01 -0.65435357497E+02  0.40500991026E+03  0.42750566476E+03  0.12000000000E+03 0.  0.
<mgrwt>
<rscale>  0 0.27481164E+03</rscale>
<asrwt>0</asrwt>
<pdfrwt beam="1">  1        3 0.31756718E-02 0.27481164E+03</pdfrwt>
<pdfrwt beam="2">  1       -3 0.14071744E+00 0.27481164E+03</pdfrwt>
<totfact> 0.47437725E+02</totfact>
</mgrwt>
</event>
<event>
 5    1  0.1139158E+001  0.2753480E+03  0.7818608E-02  0.1098257E+00
          2   -1    0    0  501    0  0.00000000000E+00  0.00000000000E+00  0.29317161971E+03  0.29317161971E+03  0.00000000000E+00 0. -1.
         -2   -1    0    0    0  501 -0.00000000000E+00 -0.00000000000E+00 -0.64651978276E+02  0.64651978276E+02  0.00000000000E+00 0. -1.
         35    2    1    2    0    0  0.00000000000E+00  0.00000000000E+00  0.22851964144E+03  0.35782359799E+03  0.27534796305E+03 0.  0.
         25    1    3    3    0    0 -0.48018295444E+02  0.19389258625E+02  0.58027068194E+02  0.14299944297E+03  0.12000000000E+03 0.  0.
         25    1    3    3    0    0  0.48018295444E+02 -0.19389258625E+02  0.17049257324E+03  0.21482415502E+03  0.12000000000E+03 0.  0.
<mgrwt>
<rscale>  0 0.27534796E+03</rscale>
<asrwt>0</asrwt>
<pdfrwt beam="1">  1        2 0.45103325E-01 0.27534796E+03</pdfrwt>
<pdfrwt beam="2">  1       -2 0.99464583E-02 0.27534796E+03</pdfrwt>
<totfact> 0.74479708E+03</totfact>
</mgrwt>
</event>
<event>
 5    1  0.1139158E+001  0.2748089E+03  0.7818608E-02  0.1098558E+00
         -1   -1    0    0    0  501 -0.00000000000E+00  0.00000000000E+00  0.26112206841E+03  0.26112206841E+03  0.00000000000E+00 0. -1.
          1   -1    0    0  501    0  0.00000000000E+00 -0.00000000000E+00 -0.72303276324E+02  0.72303276324E+02  0.00000000000E+00 0. -1.
         35    2    1    2    0    0  0.00000000000E+00  0.00000000000E+00  0.18881879208E+03  0.33342534473E+03  0.27480888680E+03 0.  0.
         25    1    3    3    0    0  0.59607629372E+02  0.79407834994E+01  0.58748816372E+02  0.14651808403E+03  0.12000000000E+03 0.  0.
         25    1    3    3    0    0 -0.59607629372E+02 -0.79407834994E+01  0.13006997571E+03  0.18690726070E+03  0.12000000000E+03 0.  0.
<mgrwt>
<rscale>  0 0.27480889E+03</rscale>
<asrwt>0</asrwt>
<pdfrwt beam="1">  1        1 0.11123581E-01 0.27480889E+03</pdfrwt>
<pdfrwt beam="2">  1       -1 0.40172625E-01 0.27480889E+03</pdfrwt>
<totfact> 0.33884418E+03</totfact>
</mgrwt>
</event>
<event>
 5    1  0.1139158E+001  0.2737372E+03  0.7818608E-02  0.1099160E+00
         -1   -1    0    0    0  501 -0.00000000000E+00  0.00000000000E+00  0.75320988304E+01  0.75320988304E+01  0.00000000000E+00 0. -1.
          1   -1    0    0  501    0  0.00000000000E+00 -0.00000000000E+00 -0.24870916161E+04  0.24870916161E+04  0.00000000000E+00 0. -1.
         35    2    1    2    0    0  0.00000000000E+00  0.00000000000E+00 -0.24795595173E+04  0.24946237149E+04  0.27373724520E+03 0.  0.
         25    1    3    3    0    0  0.27820632244E+02 -0.34496293872E+02 -0.16833446523E+04  0.16881982112E+04  0.12000000000E+03 0.  0.
         25    1    3    3    0    0 -0.27820632244E+02  0.34496293872E+02 -0.79621486496E+03  0.80642550372E+03  0.12000000000E+03 0.  0.
<mgrwt>
<rscale>  0 0.27373725E+03</rscale>
<asrwt>0</asrwt>
<pdfrwt beam="1">  1        1 0.38262961E+00 0.27373725E+03</pdfrwt>
<pdfrwt beam="2">  1       -1 0.11587840E-02 0.27373725E+03</pdfrwt>
<totfact> 0.24572018E+03</totfact>
</mgrwt>
</event>
<event>
 5    1  0.1139158E+001  0.2748647E+03  0.7818608E-02  0.1098527E+00
          1   -1    0    0  501    0  0.00000000000E+00  0.00000000000E+00  0.91251587234E+03  0.91251587234E+03  0.00000000000E+00 0.  1.
         -1   -1    0    0    0  501 -0.00000000000E+00 -0.00000000000E+00 -0.20698431384E+02  0.20698431384E+02  0.00000000000E+00 0.  1.
         35    2    1    2    0    0  0.00000000000E+00  0.00000000000E+00  0.89181744095E+03  0.93321430372E+03  0.27486467340E+03 0.  0.
         25    1    3    3    0    0  0.62479874597E+02 -0.24158577905E+02  0.44412648055E+03  0.46490397110E+03  0.12000000000E+03 0.  0.
         25    1    3    3    0    0 -0.62479874597E+02  0.24158577905E+02  0.44769096040E+03  0.46831033262E+03  0.12000000000E+03 0.  0.
<mgrwt>
<rscale>  0 0.27486467E+03</rscale>
<asrwt>0</asrwt>
<pdfrwt beam="1">  1        1 0.14038703E+00 0.27486467E+03</pdfrwt>
<pdfrwt beam="2">  1       -1 0.31843748E-02 0.27486467E+03</pdfrwt>
<totfact> 0.64386061E+03</totfact>
</mgrwt>
</event>
<event>
 5    1  0.1139158E+001  0.2754963E+03  0.7818608E-02  0.1098174E+00
         -4   -1    0    0    0  501 -0.00000000000E+00  0.00000000000E+00  0.11085523789E+03  0.11085523789E+03  0.00000000000E+00 0. -1.
          4   -1    0    0  501    0  0.00000000000E+00 -0.00000000000E+00 -0.17116517948E+03  0.17116517948E+03  0.00000000000E+00 0. -1.
         35    2    1    2    0    0  0.00000000000E+00  0.00000000000E+00 -0.60309941590E+02  0.28202041737E+03  0.27549632803E+03 0.  0.
         25    1    3    3    0    0  0.35954942345E+01 -0.59407541491E+02 -0.63046425482E+02  0.14804403173E+03  0.12000000000E+03 0.  0.
         25    1    3    3    0    0 -0.35954942345E+01  0.59407541491E+02  0.27364838921E+01  0.13397638564E+03  0.12000000000E+03 0.  0.
<mgrwt>
<rscale>  0 0.27549633E+03</rscale>
<asrwt>0</asrwt>
<pdfrwt beam="1">  1        4 0.26333104E-01 0.27549633E+03</pdfrwt>
<pdfrwt beam="2">  1       -4 0.17054652E-01 0.27549633E+03</pdfrwt>
<totfact> 0.76613430E+02</totfact>
</mgrwt>
</event>
<event>
 5    1  0.1139158E+001  0.2754825E+03  0.7818608E-02  0.1098182E+00
         -2   -1    0    0    0  501 -0.00000000000E+00  0.00000000000E+00  0.26564303619E+03  0.26564303619E+03  0.00000000000E+00 0.  1.
          2   -1    0    0  501    0  0.00000000000E+00 -0.00000000000E+00 -0.71421608503E+02  0.71421608503E+02  0.00000000000E+00 0.  1.
         35    2    1    2    0    0  0.00000000000E+00  0.00000000000E+00  0.19422142768E+03  0.33706464469E+03  0.27548250712E+03 0.  0.
         25    1    3    3    0    0  0.53739616582E+01 -0.57012609470E+02  0.53108469452E+02  0.14317760520E+03  0.12000000000E+03 0.  0.
         25    1    3    3    0    0 -0.53739616582E+01  0.57012609470E+02  0.14111295823E+03  0.19388703949E+03  0.12000000000E+03 0.  0.
<mgrwt>
<rscale>  0 0.27548251E+03</rscale>
<asrwt>0</asrwt>
<pdfrwt beam="1">  1        2 0.10987940E-01 0.27548251E+03</pdfrwt>
<pdfrwt beam="2">  1       -2 0.40868159E-01 0.27548251E+03</pdfrwt>
<totfact> 0.32426752E+03</totfact>
</mgrwt>
</event>
<event>
 5    1  0.1139158E+001  0.2771680E+03  0.7818608E-02  0.1097246E+00
          4   -1    0    0  501    0  0.00000000000E+00  0.00000000000E+00  0.10033377702E+03  0.10033377702E+03  0.00000000000E+00 0. -1.
         -4   -1    0    0    0  501 -0.00000000000E+00 -0.00000000000E+00 -0.19141633855E+03  0.19141633855E+03  0.00000000000E+00 0. -1.
         35    2    1    2    0    0  0.00000000000E+00  0.00000000000E+00 -0.91082561527E+02  0.29175011558E+03  0.27716799405E+03 0.  0.
         25    1    3    3    0    0  0.78972783829E+01  0.64429818102E+02 -0.19931103464E+02  0.13787972060E+03  0.12000000000E+03 0.  0.
         25    1    3    3    0    0 -0.78972783829E+01 -0.64429818102E+02 -0.71151458063E+02  0.15387039498E+03  0.12000000000E+03 0.  0.
<mgrwt>
<rscale>  0 0.27716799E+03</rscale>
<asrwt>0</asrwt>
<pdfrwt beam="1">  1        4 0.15435966E-01 0.27716799E+03</pdfrwt>
<pdfrwt beam="2">  1       -4 0.29448668E-01 0.27716799E+03</pdfrwt>
<totfact> 0.74101154E+02</totfact>
</mgrwt>
</event>
<event>
 5    1  0.1139158E+001  0.2756429E+03  0.7818608E-02  0.1098093E+00
          2   -1    0    0  501    0  0.00000000000E+00  0.00000000000E+00  0.12393553976E+04  0.12393553976E+04  0.00000000000E+00 0. -1.
         -2   -1    0    0    0  501 -0.00000000000E+00 -0.00000000000E+00 -0.15326316927E+02  0.15326316927E+02  0.00000000000E+00 0. -1.
         35    2    1    2    0    0  0.00000000000E+00  0.00000000000E+00  0.12240290807E+04  0.12546817146E+04  0.27564291109E+03 0.  0.
         25    1    3    3    0    0  0.63038090887E+02 -0.16751409999E+02  0.69598859677E+03  0.70926337666E+03  0.12000000000E+03 0.  0.
         25    1    3    3    0    0 -0.63038090887E+02  0.16751409999E+02  0.52804048394E+03  0.54541833790E+03  0.12000000000E+03 0.  0.
<mgrwt>
<rscale>  0 0.27564291E+03</rscale>
<asrwt>0</asrwt>
<pdfrwt beam="1">  1        2 0.19066998E+00 0.27564291E+03</pdfrwt>
<pdfrwt beam="2">  1       -2 0.23578959E-02 0.27564291E+03</pdfrwt>
<totfact> 0.11490627E+04</totfact>
</mgrwt>
</event>
<event>
 5    1  0.1139158E+001  0.2754158E+03  0.7818608E-02  0.1098219E+00
          2   -1    0    0  501    0  0.00000000000E+00  0.00000000000E+00  0.12823964428E+04  0.12823964428E+04  0.00000000000E+00 0.  1.
         -2   -1    0    0    0  501 -0.00000000000E+00 -0.00000000000E+00 -0.14787525009E+02  0.14787525009E+02  0.00000000000E+00 0.  1.
         35    2    1    2    0    0  0.00000000000E+00  0.00000000000E+00  0.12676089178E+04  0.12971839678E+04  0.27541582721E+03 0.  0.
         25    1    3    3    0    0 -0.26198981233E+02  0.50629870518E+02  0.80451511187E+03  0.81541053196E+03  0.12000000000E+03 0.  0.
         25    1    3    3    0    0  0.26198981233E+02 -0.50629870518E+02  0.46309380593E+03  0.48177343586E+03  0.12000000000E+03 0.  0.
<mgrwt>
<rscale>  0 0.27541583E+03</rscale>
<asrwt>0</asrwt>
<pdfrwt beam="1">  1        2 0.19729167E+00 0.27541583E+03</pdfrwt>
<pdfrwt beam="2">  1       -2 0.22750049E-02 0.27541583E+03</pdfrwt>
<totfact> 0.11461110E+04</totfact>
</mgrwt>
</event>
<event>
 5    1  0.1139158E+001  0.2750150E+03  0.7818608E-02  0.1098443E+00
         -2   -1    0    0    0  501 -0.00000000000E+00  0.00000000000E+00  0.30897107736E+02  0.30897107736E+02  0.00000000000E+00 0. -1.
          2   -1    0    0  501    0  0.00000000000E+00 -0.00000000000E+00 -0.61197670382E+03  0.61197670382E+03  0.00000000000E+00 0. -1.
         35    2    1    2    0    0  0.00000000000E+00  0.00000000000E+00 -0.58107959609E+03  0.64287381156E+03  0.27501498250E+03 0.  0.
         25    1    3    3    0    0 -0.62808445757E+02 -0.17717551346E+02 -0.32746327785E+03  0.35481123266E+03  0.12000000000E+03 0.  0.
         25    1    3    3    0    0  0.62808445757E+02  0.17717551346E+02 -0.25361631824E+03  0.28806257890E+03  0.12000000000E+03 0.  0.
<mgrwt>
<rscale>  0 0.27501498E+03</rscale>
<asrwt>0</asrwt>
<pdfrwt beam="1">  1        2 0.94150266E-01 0.27501498E+03</pdfrwt>
<pdfrwt beam="2">  1       -2 0.47534010E-02 0.27501498E+03</pdfrwt>
<totfact> 0.10378018E+04</totfact>
</mgrwt>
</event>
<event>
 5    1  0.1139158E+001  0.2746481E+03  0.7818608E-02  0.1098648E+00
          1   -1    0    0  501    0  0.00000000000E+00  0.00000000000E+00  0.33764824120E+03  0.33764824120E+03  0.00000000000E+00 0.  1.
         -1   -1    0    0    0  501 -0.00000000000E+00 -0.00000000000E+00 -0.55850718651E+02  0.55850718651E+02  0.00000000000E+00 0.  1.
         35    2    1    2    0    0  0.00000000000E+00  0.00000000000E+00  0.28179752255E+03  0.39349895986E+03  0.27464811612E+03 0.  0.
         25    1    3    3    0    0 -0.55264268751E+02 -0.25004483646E+02  0.18087533473E+03  0.22537801649E+03  0.12000000000E+03 0.  0.
         25    1    3    3    0    0  0.55264268751E+02  0.25004483646E+02  0.10092218782E+03  0.16812094336E+03  0.12000000000E+03 0.  0.
<mgrwt>
<rscale>  0 0.27464812E+03</rscale>
<asrwt>0</asrwt>
<pdfrwt beam="1">  1        1 0.51945882E-01 0.27464812E+03</pdfrwt>
<pdfrwt beam="2">  1       -1 0.85924185E-02 0.27464812E+03</pdfrwt>
<totfact> 0.57746776E+03</totfact>
</mgrwt>
</event>
<event>
 5    1  0.1139158E+001  0.2766467E+03  0.7818608E-02  0.1097535E+00
         -2   -1    0    0    0  501 -0.00000000000E+00  0.00000000000E+00  0.17151662656E+03  0.17151662656E+03  0.00000000000E+00 0. -1.
          2   -1    0    0  501    0  0.00000000000E+00 -0.00000000000E+00 -0.11155392478E+03  0.11155392478E+03  0.00000000000E+00 0. -1.
         35    2    1    2    0    0  0.00000000000E+00  0.00000000000E+00  0.59962701775E+02  0.28307055134E+03  0.27664672677E+03 0.  0.
         25    1    3    3    0    0 -0.33898840582E+02 -0.59861608959E+02  0.29060886161E+02  0.14134029406E+03  0.12000000000E+03 0.  0.
         25    1    3    3    0    0  0.33898840582E+02  0.59861608959E+02  0.30901815614E+02  0.14173025728E+03  0.12000000000E+03 0.  0.
<mgrwt>
<rscale>  0 0.27664673E+03</rscale>
<asrwt>0</asrwt>
<pdfrwt beam="1">  1        2 0.17162142E-01 0.27664673E+03</pdfrwt>
<pdfrwt beam="2">  1       -2 0.26387173E-01 0.27664673E+03</pdfrwt>
<totfact> 0.42614427E+03</totfact>
</mgrwt>
</event>
<event>
 5    1  0.1139158E+001  0.2753468E+03  0.7818608E-02  0.1098258E+00
          3   -1    0    0  501    0  0.00000000000E+00  0.00000000000E+00  0.65113600592E+02  0.65113600592E+02  0.00000000000E+00 0. -1.
         -3   -1    0    0    0  501 -0.00000000000E+00 -0.00000000000E+00 -0.29109064933E+03  0.29109064933E+03  0.00000000000E+00 0. -1.
         35    2    1    2    0    0  0.00000000000E+00  0.00000000000E+00 -0.22597704874E+03  0.35620424992E+03  0.27534676520E+03 0.  0.
         25    1    3    3    0    0 -0.64932583720E+02 -0.13348067321E+02 -0.96647996237E+02  0.16773564471E+03  0.12000000000E+03 0.  0.
         25    1    3    3    0    0  0.64932583720E+02  0.13348067321E+02 -0.12932905250E+03  0.18846860521E+03  0.12000000000E+03 0.  0.
<mgrwt>
<rscale>  0 0.27534677E+03</rscale>
<asrwt>0</asrwt>
<pdfrwt beam="1">  1        3 0.10017477E-01 0.27534677E+03</pdfrwt>
<pdfrwt beam="2">  1       -3 0.44783176E-01 0.27534677E+03</pdfrwt>
<totfact> 0.93100482E+02</totfact>
</mgrwt>
</event>
<event>
 5    1  0.1139158E+001  0.2748804E+03  0.7818608E-02  0.1098518E+00
          2   -1    0    0  501    0  0.00000000000E+00  0.00000000000E+00  0.63272245105E+03  0.63272245105E+03  0.00000000000E+00 0. -1.
         -2   -1    0    0    0  501 -0.00000000000E+00 -0.00000000000E+00 -0.29854807487E+02  0.29854807487E+02  0.00000000000E+00 0. -1.
         35    2    1    2    0    0  0.00000000000E+00  0.00000000000E+00  0.60286764356E+03  0.66257725854E+03  0.27488038831E+03 0.  0.
         25    1    3    3    0    0 -0.38141942882E+01 -0.63673121258E+02  0.25197657231E+03  0.28628832921E+03  0.12000000000E+03 0.  0.
         25    1    3    3    0    0  0.38141942882E+01  0.63673121258E+02  0.35089107126E+03  0.37628892933E+03  0.12000000000E+03 0.  0.
<mgrwt>
<rscale>  0 0.27488039E+03</rscale>
<asrwt>0</asrwt>
<pdfrwt beam="1">  1        2 0.97341906E-01 0.27488039E+03</pdfrwt>
<pdfrwt beam="2">  1       -2 0.45930478E-02 0.27488039E+03</pdfrwt>
<totfact> 0.10512501E+04</totfact>
</mgrwt>
</event>
<event>
 5    1  0.1139158E+001  0.2744090E+03  0.7818608E-02  0.1098782E+00
          1   -1    0    0  501    0  0.00000000000E+00  0.00000000000E+00  0.25150090754E+04  0.25150090754E+04  0.00000000000E+00 0.  1.
         -1   -1    0    0    0  501 -0.00000000000E+00 -0.00000000000E+00 -0.74850906632E+01  0.74850906632E+01  0.00000000000E+00 0.  1.
         35    2    1    2    0    0  0.00000000000E+00  0.00000000000E+00  0.25075239847E+04  0.25224941660E+04  0.27440897178E+03 0.  0.
         25    1    3    3    0    0 -0.36145935174E+02 -0.58704575430E+01  0.74326324030E+03  0.75377797479E+03  0.12000000000E+03 0.  0.
         25    1    3    3    0    0  0.36145935174E+02  0.58704575430E+01  0.17642607444E+04  0.17687161912E+04  0.12000000000E+03 0.  0.
<mgrwt>
<rscale>  0 0.27440897E+03</rscale>
<asrwt>0</asrwt>
<pdfrwt beam="1">  1        1 0.38692380E+00 0.27440897E+03</pdfrwt>
<pdfrwt beam="2">  1       -1 0.11515544E-02 0.27440897E+03</pdfrwt>
<totfact> 0.23757360E+03</totfact>
</mgrwt>
</event>
<event>
 5    1  0.1139158E+001  0.2753066E+03  0.7818608E-02  0.1098280E+00
         -2   -1    0    0    0  501 -0.00000000000E+00  0.00000000000E+00  0.19306411291E+02  0.19306411291E+02  0.00000000000E+00 0.  1.
          2   -1    0    0  501    0  0.00000000000E+00 -0.00000000000E+00 -0.98145828841E+03  0.98145828841E+03  0.00000000000E+00 0.  1.
         35    2    1    2    0    0  0.00000000000E+00  0.00000000000E+00 -0.96215187712E+03  0.10007646997E+04  0.27530664635E+03 0.  0.
         25    1    3    3    0    0  0.49523507762E+02 -0.79218707553E+01 -0.31716987191E+03  0.34280032308E+03  0.12000000000E+03 0.  0.
         25    1    3    3    0    0 -0.49523507762E+02  0.79218707553E+01 -0.64498200521E+03  0.65796437662E+03  0.12000000000E+03 0.  0.
<mgrwt>
<rscale>  0 0.27530665E+03</rscale>
<asrwt>0</asrwt>
<pdfrwt beam="1">  1        2 0.15099358E+00 0.27530665E+03</pdfrwt>
<pdfrwt beam="2">  1       -2 0.29702173E-02 0.27530665E+03</pdfrwt>
<totfact> 0.11561797E+04</totfact>
</mgrwt>
</event>
<event>
 5    1  0.1139158E+001  0.2776343E+03  0.7818608E-02  0.1096988E+00
         -1   -1    0    0    0  501 -0.00000000000E+00  0.00000000000E+00  0.12827305913E+02  0.12827305913E+02  0.00000000000E+00 0.  1.
          1   -1    0    0  501    0  0.00000000000E+00 -0.00000000000E+00 -0.15022797014E+04  0.15022797014E+04  0.00000000000E+00 0.  1.
         35    2    1    2    0    0  0.00000000000E+00  0.00000000000E+00 -0.14894523955E+04  0.15151070073E+04  0.27763430117E+03 0.  0.
         25    1    3    3    0    0  0.58130117899E+02  0.83694780365E+01 -0.95044487490E+03  0.95978884084E+03  0.12000000000E+03 0.  0.
         25    1    3    3    0    0 -0.58130117899E+02 -0.83694780365E+01 -0.53900752060E+03  0.55531816649E+03  0.12000000000E+03 0.  0.
<mgrwt>
<rscale>  0 0.27763430E+03</rscale>
<asrwt>0</asrwt>
<pdfrwt beam="1">  1        1 0.23111977E+00 0.27763430E+03</pdfrwt>
<pdfrwt beam="2">  1       -1 0.19734333E-02 0.27763430E+03</pdfrwt>
<totfact> 0.49872893E+03</totfact>
</mgrwt>
</event>
<event>
 5    1  0.1139158E+001  0.2751534E+03  0.7818608E-02  0.1098366E+00
         -1   -1    0    0    0  501 -0.00000000000E+00  0.00000000000E+00  0.73463356134E+02  0.73463356134E+02  0.00000000000E+00 0.  1.
          1   -1    0    0  501    0  0.00000000000E+00 -0.00000000000E+00 -0.25764343760E+03  0.25764343760E+03  0.00000000000E+00 0.  1.
         35    2    1    2    0    0  0.00000000000E+00  0.00000000000E+00 -0.18418008146E+03  0.33110679373E+03  0.27515342347E+03 0.  0.
         25    1    3    3    0    0  0.12373022156E+02 -0.44964122358E+02 -0.33724455330E+02  0.13308720023E+03  0.12000000000E+03 0.  0.
         25    1    3    3    0    0 -0.12373022156E+02  0.44964122358E+02 -0.15045562613E+03  0.19801959350E+03  0.12000000000E+03 0.  0.
<mgrwt>
<rscale>  0 0.27515342E+03</rscale>
<asrwt>0</asrwt>
<pdfrwt beam="1">  1        1 0.39637452E-01 0.27515342E+03</pdfrwt>
<pdfrwt beam="2">  1       -1 0.11302055E-01 0.27515342E+03</pdfrwt>
<totfact> 0.53142407E+03</totfact>
</mgrwt>
</event>
<event>
 5    1  0.1139158E+001  0.2745780E+03  0.7818608E-02  0.1098688E+00
         -2   -1    0    0    0  501 -0.00000000000E+00  0.00000000000E+00  0.20384111245E+02  0.20384111245E+02  0.00000000000E+00 0.  1.
          2   -1    0    0  501    0  0.00000000000E+00 -0.00000000000E+00 -0.92465490138E+03  0.92465490138E+03  0.00000000000E+00 0.  1.
         35    2    1    2    0    0  0.00000000000E+00  0.00000000000E+00 -0.90427079013E+03  0.94503901262E+03  0.27457799164E+03 0.  0.
         25    1    3    3    0    0 -0.23816041198E+02 -0.29368677778E+01 -0.23795667145E+03  0.26758028048E+03  0.12000000000E+03 0.  0.
         25    1    3    3    0    0  0.23816041198E+02  0.29368677778E+01 -0.66631411868E+03  0.67745873215E+03  0.12000000000E+03 0.  0.
<mgrwt>
<rscale>  0 0.27457799E+03</rscale>
<asrwt>0</asrwt>
<pdfrwt beam="1">  1        2 0.14225456E+00 0.27457799E+03</pdfrwt>
<pdfrwt beam="2">  1       -2 0.31360180E-02 0.27457799E+03</pdfrwt>
<totfact> 0.11574021E+04</totfact>
</mgrwt>
</event>
<event>
 5    1  0.1139158E+001  0.2665514E+03  0.7818608E-02  0.1103270E+00
          2   -1    0    0  501    0  0.00000000000E+00  0.00000000000E+00  0.16007395633E+04  0.16007395633E+04  0.00000000000E+00 0.  1.
         -2   -1    0    0    0  501 -0.00000000000E+00 -0.00000000000E+00 -0.11096379825E+02  0.11096379825E+02  0.00000000000E+00 0.  1.
         35    2    1    2    0    0  0.00000000000E+00  0.00000000000E+00  0.15896431835E+04  0.16118359431E+04  0.26655141489E+03 0.  0.
         25    1    3    3    0    0  0.14200460095E+02  0.24083508496E+02  0.48762778619E+03  0.50295380137E+03  0.12000000000E+03 0.  0.
         25    1    3    3    0    0 -0.14200460095E+02 -0.24083508496E+02  0.11020153973E+04  0.11088821417E+04  0.12000000000E+03 0.  0.
<mgrwt>
<rscale>  0 0.26655141E+03</rscale>
<asrwt>0</asrwt>
<pdfrwt beam="1">  1        2 0.24626744E+00 0.26655141E+03</pdfrwt>
<pdfrwt beam="2">  1       -2 0.17071366E-02 0.26655141E+03</pdfrwt>
<totfact> 0.11755685E+04</totfact>
</mgrwt>
</event>
<event>
 5    1  0.1139158E+001  0.2744367E+03  0.7818608E-02  0.1098767E+00
          2   -1    0    0  501    0  0.00000000000E+00  0.00000000000E+00  0.30824782182E+02  0.30824782182E+02  0.00000000000E+00 0.  1.
         -2   -1    0    0    0  501 -0.00000000000E+00 -0.00000000000E+00 -0.61083547498E+03  0.61083547498E+03  0.00000000000E+00 0.  1.
         35    2    1    2    0    0  0.00000000000E+00  0.00000000000E+00 -0.58001069280E+03  0.64166025716E+03  0.27443666275E+03 0.  0.
         25    1    3    3    0    0 -0.26916454221E+02  0.59338060198E+02 -0.32166649339E+03  0.34944932947E+03  0.12000000000E+03 0.  0.
         25    1    3    3    0    0  0.26916454221E+02 -0.59338060198E+02 -0.25834419941E+03  0.29221092769E+03  0.12000000000E+03 0.  0.
<mgrwt>
<rscale>  0 0.27443666E+03</rscale>
<asrwt>0</asrwt>
<pdfrwt beam="1">  1        2 0.47422747E-02 0.27443666E+03</pdfrwt>
<pdfrwt beam="2">  1       -2 0.93974678E-01 0.27443666E+03</pdfrwt>
<totfact> 0.16686198E+03</totfact>
</mgrwt>
</event>
<event>
 5    1  0.1139158E+001  0.2748890E+03  0.7818608E-02  0.1098514E+00
         -2   -1    0    0    0  501 -0.00000000000E+00  0.00000000000E+00  0.35134264246E+02  0.35134264246E+02  0.00000000000E+00 0. -1.
          2   -1    0    0  501    0  0.00000000000E+00 -0.00000000000E+00 -0.53767997937E+03  0.53767997937E+03  0.00000000000E+00 0. -1.
         35    2    1    2    0    0  0.00000000000E+00  0.00000000000E+00 -0.50254571512E+03  0.57281424362E+03  0.27488899923E+03 0.  0.
         25    1    3    3    0    0  0.47250617244E+02 -0.17232780287E+02 -0.34355966806E+03  0.36737288287E+03  0.12000000000E+03 0.  0.
         25    1    3    3    0    0 -0.47250617244E+02  0.17232780287E+02 -0.15898604706E+03  0.20544136075E+03  0.12000000000E+03 0.  0.
<mgrwt>
<rscale>  0 0.27488900E+03</rscale>
<asrwt>0</asrwt>
<pdfrwt beam="1">  1        2 0.82719992E-01 0.27488900E+03</pdfrwt>
<pdfrwt beam="2">  1       -2 0.54052718E-02 0.27488900E+03</pdfrwt>
<totfact> 0.99048657E+03</totfact>
</mgrwt>
</event>
<event>
 5    1  0.1139158E+001  0.2728522E+03  0.7818608E-02  0.1099658E+00
         -2   -1    0    0    0  501 -0.00000000000E+00  0.00000000000E+00  0.14402342152E+02  0.14402342152E+02  0.00000000000E+00 0. -1.
          2   -1    0    0  501    0  0.00000000000E+00 -0.00000000000E+00 -0.12922955876E+04  0.12922955876E+04  0.00000000000E+00 0. -1.
         35    2    1    2    0    0  0.00000000000E+00  0.00000000000E+00 -0.12778932455E+04  0.13066979298E+04  0.27285221798E+03 0.  0.
         25    1    3    3    0    0  0.12472127257E+02 -0.58871532642E+02 -0.52255522860E+03  0.53952328796E+03  0.12000000000E+03 0.  0.
         25    1    3    3    0    0 -0.12472127257E+02  0.58871532642E+02 -0.75533801686E+03  0.76717464180E+03  0.12000000000E+03 0.  0.
<mgrwt>
<rscale>  0 0.27285222E+03</rscale>
<asrwt>0</asrwt>
<pdfrwt beam="1">  1        2 0.19881466E+00 0.27285222E+03</pdfrwt>
<pdfrwt beam="2">  1       -2 0.22157455E-02 0.27285222E+03</pdfrwt>
<totfact> 0.11763497E+04</totfact>
</mgrwt>
</event>
<event>
 5    1  0.1139158E+001  0.2889406E+03  0.7818608E-02  0.1090904E+00
         -1   -1    0    0    0  501 -0.00000000000E+00  0.00000000000E+00  0.15674930150E+02  0.15674930150E+02  0.00000000000E+00 0.  1.
          1   -1    0    0  501    0  0.00000000000E+00 -0.00000000000E+00 -0.13315320716E+04  0.13315320716E+04  0.00000000000E+00 0.  1.
         35    2    1    2    0    0  0.00000000000E+00  0.00000000000E+00 -0.13158571414E+04  0.13472070017E+04  0.28894063206E+03 0.  0.
         25    1    3    3    0    0  0.76911579854E+01 -0.79795061712E+02 -0.68929852098E+03  0.70424346415E+03  0.12000000000E+03 0.  0.
         25    1    3    3    0    0 -0.76911579854E+01  0.79795061712E+02 -0.62655862044E+03  0.64296353756E+03  0.12000000000E+03 0.  0.
<mgrwt>
<rscale>  0 0.28894063E+03</rscale>
<asrwt>0</asrwt>
<pdfrwt beam="1">  1        1 0.20485102E+00 0.28894063E+03</pdfrwt>
<pdfrwt beam="2">  1       -1 0.24115285E-02 0.28894063E+03</pdfrwt>
<totfact> 0.48411311E+03</totfact>
</mgrwt>
</event>
<event>
 5    1  0.1139158E+001  0.2736071E+03  0.7818608E-02  0.1099233E+00
          2   -1    0    0  501    0  0.00000000000E+00  0.00000000000E+00  0.81698914910E+03  0.81698914910E+03  0.00000000000E+00 0.  1.
         -2   -1    0    0    0  501 -0.00000000000E+00 -0.00000000000E+00 -0.22907546674E+02  0.22907546674E+02  0.00000000000E+00 0.  1.
         35    2    1    2    0    0  0.00000000000E+00  0.00000000000E+00  0.79408160242E+03  0.83989669577E+03  0.27360714219E+03 0.  0.
         25    1    3    3    0    0  0.41544482496E+02 -0.50298566667E+02  0.37339655467E+03  0.39759385920E+03  0.12000000000E+03 0.  0.
         25    1    3    3    0    0 -0.41544482496E+02  0.50298566667E+02  0.42068504776E+03  0.44230283657E+03  0.12000000000E+03 0.  0.
<mgrwt>
<rscale>  0 0.27360714E+03</rscale>
<asrwt>0</asrwt>
<pdfrwt beam="1">  1        2 0.12569062E+00 0.27360714E+03</pdfrwt>
<pdfrwt beam="2">  1       -2 0.35242386E-02 0.27360714E+03</pdfrwt>
<totfact> 0.11444762E+04</totfact>
</mgrwt>
</event>
<event>
 5    1  0.1139158E+001  0.2740372E+03  0.7818608E-02  0.1098991E+00
          2   -1    0    0  501    0  0.00000000000E+00  0.00000000000E+00  0.10064526972E+04  0.10064526972E+04  0.00000000000E+00 0. -1.
         -2   -1    0    0    0  501 -0.00000000000E+00 -0.00000000000E+00 -0.18653735017E+02  0.18653735017E+02  0.00000000000E+00 0. -1.
         35    2    1    2    0    0  0.00000000000E+00  0.00000000000E+00  0.98779896214E+03  0.10251064322E+04  0.27403723776E+03 0.  0.
         25    1    3    3    0    0  0.41956166201E+02  0.30230861755E+02  0.64812922257E+03  0.66116995851E+03  0.12000000000E+03 0.  0.
         25    1    3    3    0    0 -0.41956166201E+02 -0.30230861755E+02  0.33966973957E+03  0.36393647367E+03  0.12000000000E+03 0.  0.
<mgrwt>
<rscale>  0 0.27403724E+03</rscale>
<asrwt>0</asrwt>
<pdfrwt beam="1">  1        2 0.15483883E+00 0.27403724E+03</pdfrwt>
<pdfrwt beam="2">  1       -2 0.28698062E-02 0.27403724E+03</pdfrwt>
<totfact> 0.11743960E+04</totfact>
</mgrwt>
</event>
<event>
 5    1  0.1139158E+001  0.2752476E+03  0.7818608E-02  0.1098313E+00
         -1   -1    0    0    0  501 -0.00000000000E+00  0.00000000000E+00  0.23210210501E+02  0.23210210501E+02  0.00000000000E+00 0.  1.
          1   -1    0    0  501    0  0.00000000000E+00 -0.00000000000E+00 -0.81603366192E+03  0.81603366192E+03  0.00000000000E+00 0.  1.
         35    2    1    2    0    0  0.00000000000E+00  0.00000000000E+00 -0.79282345141E+03  0.83924387242E+03  0.27524761993E+03 0.  0.
         25    1    3    3    0    0 -0.25584560334E+02 -0.54230298570E+02 -0.49013311104E+03  0.50815938597E+03  0.12000000000E+03 0.  0.
         25    1    3    3    0    0  0.25584560334E+02  0.54230298570E+02 -0.30269034037E+03  0.33108448645E+03  0.12000000000E+03 0.  0.
<mgrwt>
<rscale>  0 0.27524762E+03</rscale>
<asrwt>0</asrwt>
<pdfrwt beam="1">  1        1 0.12554362E+00 0.27524762E+03</pdfrwt>
<pdfrwt beam="2">  1       -1 0.35708023E-02 0.27524762E+03</pdfrwt>
<totfact> 0.64953726E+03</totfact>
</mgrwt>
</event>
<event>
 5    1  0.1139158E+001  0.2753035E+03  0.7818608E-02  0.1098282E+00
         -2   -1    0    0    0  501 -0.00000000000E+00  0.00000000000E+00  0.70594292312E+01  0.70594292312E+01  0.00000000000E+00 0. -1.
          2   -1    0    0  501    0  0.00000000000E+00 -0.00000000000E+00 -0.26840708407E+04  0.26840708407E+04  0.00000000000E+00 0. -1.
         35    2    1    2    0    0  0.00000000000E+00  0.00000000000E+00 -0.26770114114E+04  0.26911302699E+04  0.27530352814E+03 0.  0.
         25    1    3    3    0    0  0.18827450080E+02 -0.42078817321E+02 -0.85734357146E+03  0.86692738984E+03  0.12000000000E+03 0.  0.
         25    1    3    3    0    0 -0.18827450080E+02  0.42078817321E+02 -0.18196678400E+04  0.18242028800E+04  0.12000000000E+03 0.  0.
<mgrwt>
<rscale>  0 0.27530353E+03</rscale>
<asrwt>0</asrwt>
<pdfrwt beam="1">  1        2 0.41293479E+00 0.27530353E+03</pdfrwt>
<pdfrwt beam="2">  1       -2 0.10860639E-02 0.27530353E+03</pdfrwt>
<totfact> 0.59934584E+03</totfact>
</mgrwt>
</event>
<event>
 5    1  0.1139158E+001  0.2763011E+03  0.7818608E-02  0.1097726E+00
          1   -1    0    0  501    0  0.00000000000E+00  0.00000000000E+00  0.13498021807E+04  0.13498021807E+04  0.00000000000E+00 0.  1.
         -1   -1    0    0    0  501 -0.00000000000E+00 -0.00000000000E+00 -0.14139539447E+02  0.14139539447E+02  0.00000000000E+00 0.  1.
         35    2    1    2    0    0  0.00000000000E+00  0.00000000000E+00  0.13356626412E+04  0.13639417201E+04  0.27630114860E+03 0.  0.
         25    1    3    3    0    0  0.58403853820E+02 -0.23548959403E+02  0.53537134694E+03  0.55225722517E+03  0.12000000000E+03 0.  0.
         25    1    3    3    0    0 -0.58403853820E+02  0.23548959403E+02  0.80029129430E+03  0.81168449496E+03  0.12000000000E+03 0.  0.
<mgrwt>
<rscale>  0 0.27630115E+03</rscale>
<asrwt>0</asrwt>
<pdfrwt beam="1">  1        1 0.20766177E+00 0.27630115E+03</pdfrwt>
<pdfrwt beam="2">  1       -1 0.21753148E-02 0.27630115E+03</pdfrwt>
<totfact> 0.54706191E+03</totfact>
</mgrwt>
</event>
<event>
 5    1  0.1139158E+001  0.2746540E+03  0.7818608E-02  0.1098645E+00
          2   -1    0    0  501    0  0.00000000000E+00  0.00000000000E+00  0.68707953884E+03  0.68707953884E+03  0.00000000000E+00 0. -1.
         -2   -1    0    0    0  501 -0.00000000000E+00 -0.00000000000E+00 -0.27447629190E+02  0.27447629190E+02  0.00000000000E+00 0. -1.
         35    2    1    2    0    0  0.00000000000E+00  0.00000000000E+00  0.65963190965E+03  0.71452716803E+03  0.27465399619E+03 0.  0.
         25    1    3    3    0    0  0.51719032191E+02  0.41830743510E+02  0.34499329900E+03  0.37127489242E+03  0.12000000000E+03 0.  0.
         25    1    3    3    0    0 -0.51719032191E+02 -0.41830743510E+02  0.31463861065E+03  0.34325227560E+03  0.12000000000E+03 0.  0.
<mgrwt>
<rscale>  0 0.27465400E+03</rscale>
<asrwt>0</asrwt>
<pdfrwt beam="1">  1        2 0.10570453E+00 0.27465400E+03</pdfrwt>
<pdfrwt beam="2">  1       -2 0.42227127E-02 0.27465400E+03</pdfrwt>
<totfact> 0.10819115E+04</totfact>
</mgrwt>
</event>
<event>
 4    1  0.1139158E+001  0.3077012E+03  0.7818608E-02  0.1081453E+00
         -2   -1    0    0    0  501 -0.00000000000E+00  0.00000000000E+00  0.18807390939E+02  0.18807390939E+02  0.00000000000E+00 0. -1.
          2   -1    0    0  501    0  0.00000000000E+00 -0.00000000000E+00 -0.12585485087E+04  0.12585485087E+04  0.00000000000E+00 0. -1.
         25    1    1    2    0    0  0.24598543817E+02  0.74712008770E+02 -0.38936981491E+03  0.41496484836E+03  0.12000000000E+03 0.  0.
         25    1    1    2    0    0 -0.24598543817E+02 -0.74712008770E+02 -0.85037130291E+03  0.86239105133E+03  0.12000000000E+03 0.  0.
<mgrwt>
<rscale>  0 0.30770124E+03</rscale>
<asrwt>0</asrwt>
<pdfrwt beam="1">  1        2 0.19362289E+00 0.30770124E+03</pdfrwt>
<pdfrwt beam="2">  1       -2 0.28934442E-02 0.30770124E+03</pdfrwt>
<totfact> 0.82920728E+03</totfact>
</mgrwt>
</event>
<event>
 5    1  0.1139158E+001  0.2750546E+03  0.7818608E-02  0.1098421E+00
          1   -1    0    0  501    0  0.00000000000E+00  0.00000000000E+00  0.63727765245E+03  0.63727765245E+03  0.00000000000E+00 0.  1.
         -1   -1    0    0    0  501 -0.00000000000E+00 -0.00000000000E+00 -0.29678999890E+02  0.29678999890E+02  0.00000000000E+00 0.  1.
         35    2    1    2    0    0  0.00000000000E+00  0.00000000000E+00  0.60759865256E+03  0.66695665234E+03  0.27505463732E+03 0.  0.
         25    1    3    3    0    0 -0.31559134518E+01 -0.42364260916E+02  0.17759071445E+03  0.21850206464E+03  0.12000000000E+03 0.  0.
         25    1    3    3    0    0  0.31559134518E+01  0.42364260916E+02  0.43000793811E+03  0.44845458770E+03  0.12000000000E+03 0.  0.
<mgrwt>
<rscale>  0 0.27505464E+03</rscale>
<asrwt>0</asrwt>
<pdfrwt beam="1">  1        1 0.98042706E-01 0.27505464E+03</pdfrwt>
<pdfrwt beam="2">  1       -1 0.45660004E-02 0.27505464E+03</pdfrwt>
<totfact> 0.64938237E+03</totfact>
</mgrwt>
</event>
<event>
 5    1  0.1139158E+001  0.2653888E+03  0.7818608E-02  0.1103948E+00
         -1   -1    0    0    0  501 -0.00000000000E+00  0.00000000000E+00  0.24233282600E+02  0.24233282600E+02  0.00000000000E+00 0. -1.
          1   -1    0    0  501    0  0.00000000000E+00 -0.00000000000E+00 -0.72659585964E+03  0.72659585964E+03  0.00000000000E+00 0. -1.
         35    2    1    2    0    0  0.00000000000E+00  0.00000000000E+00 -0.70236257704E+03  0.75082914224E+03  0.26538879255E+03 0.  0.
         25    1    3    3    0    0 -0.25195370144E+02  0.46900347370E+02 -0.29651511437E+03  0.32427713812E+03  0.12000000000E+03 0.  0.
         25    1    3    3    0    0  0.25195370144E+02 -0.46900347370E+02 -0.40584746267E+03  0.42655200412E+03  0.12000000000E+03 0.  0.
<mgrwt>
<rscale>  0 0.26538879E+03</rscale>
<asrwt>0</asrwt>
<pdfrwt beam="1">  1        1 0.11178396E+00 0.26538879E+03</pdfrwt>
<pdfrwt beam="2">  1       -1 0.37281979E-02 0.26538879E+03</pdfrwt>
<totfact> 0.72568233E+03</totfact>
</mgrwt>
</event>
<event>
 5    1  0.1139158E+001  0.2747027E+03  0.7818608E-02  0.1098618E+00
          2   -1    0    0  501    0  0.00000000000E+00  0.00000000000E+00  0.25748906020E+03  0.25748906020E+03  0.00000000000E+00 0.  1.
         -2   -1    0    0    0  501 -0.00000000000E+00 -0.00000000000E+00 -0.73266795896E+02  0.73266795896E+02  0.00000000000E+00 0.  1.
         35    2    1    2    0    0  0.00000000000E+00  0.00000000000E+00  0.18422226430E+03  0.33075585610E+03  0.27470273693E+03 0.  0.
         25    1    3    3    0    0 -0.47451620402E+02  0.25335934459E+02  0.44374948360E+02  0.13879013616E+03  0.12000000000E+03 0.  0.
         25    1    3    3    0    0  0.47451620402E+02 -0.25335934459E+02  0.13984731594E+03  0.19196571994E+03  0.12000000000E+03 0.  0.
<mgrwt>
<rscale>  0 0.27470274E+03</rscale>
<asrwt>0</asrwt>
<pdfrwt beam="1">  1        2 0.39613701E-01 0.27470274E+03</pdfrwt>
<pdfrwt beam="2">  1       -2 0.11271815E-01 0.27470274E+03</pdfrwt>
<totfact> 0.70129645E+03</totfact>
</mgrwt>
</event>
<event>
 5    1  0.1139158E+001  0.2747873E+03  0.7818608E-02  0.1098571E+00
          1   -1    0    0  501    0  0.00000000000E+00  0.00000000000E+00  0.37169100810E+03  0.37169100810E+03  0.00000000000E+00 0. -1.
         -1   -1    0    0    0  501 -0.00000000000E+00 -0.00000000000E+00 -0.50786854137E+02  0.50786854137E+02  0.00000000000E+00 0. -1.
         35    2    1    2    0    0  0.00000000000E+00  0.00000000000E+00  0.32090415397E+03  0.42247786224E+03  0.27478731421E+03 0.  0.
         25    1    3    3    0    0  0.39990567701E+02  0.41334823116E+02  0.21302382363E+03  0.25117118175E+03  0.12000000000E+03 0.  0.
         25    1    3    3    0    0 -0.39990567701E+02 -0.41334823116E+02  0.10788033033E+03  0.17130668049E+03  0.12000000000E+03 0.  0.
<mgrwt>
<rscale>  0 0.27478731E+03</rscale>
<asrwt>0</asrwt>
<pdfrwt beam="1">  1        1 0.57183230E-01 0.27478731E+03</pdfrwt>
<pdfrwt beam="2">  1       -1 0.78133624E-02 0.27478731E+03</pdfrwt>
<totfact> 0.59115074E+03</totfact>
</mgrwt>
</event>
<event>
 5    1  0.1139158E+001  0.2754837E+03  0.7818608E-02  0.1098182E+00
         -2   -1    0    0    0  501 -0.00000000000E+00  0.00000000000E+00  0.11278841838E+03  0.11278841838E+03  0.00000000000E+00 0. -1.
          2   -1    0    0  501    0  0.00000000000E+00 -0.00000000000E+00 -0.16821598132E+03  0.16821598132E+03  0.00000000000E+00 0. -1.
         35    2    1    2    0    0  0.00000000000E+00  0.00000000000E+00 -0.55427562934E+02  0.28100439970E+03  0.27548367995E+03 0.  0.
         25    1    3    3    0    0  0.47540258918E+02  0.47629695134E+02 -0.20936046567E+02  0.13916530502E+03  0.12000000000E+03 0.  0.
         25    1    3    3    0    0 -0.47540258918E+02 -0.47629695134E+02 -0.34491516367E+02  0.14183909467E+03  0.12000000000E+03 0.  0.
<mgrwt>
<rscale>  0 0.27548368E+03</rscale>
<asrwt>0</asrwt>
<pdfrwt beam="1">  1        2 0.25879382E-01 0.27548368E+03</pdfrwt>
<pdfrwt beam="2">  1       -2 0.17352064E-01 0.27548368E+03</pdfrwt>
<totfact> 0.55047255E+03</totfact>
</mgrwt>
</event>
<event>
 5    1  0.1139158E+001  0.2744459E+03  0.7818608E-02  0.1098762E+00
         -1   -1    0    0    0  501 -0.00000000000E+00  0.00000000000E+00  0.31471224468E+02  0.31471224468E+02  0.00000000000E+00 0. -1.
          1   -1    0    0  501    0  0.00000000000E+00 -0.00000000000E+00 -0.59832889283E+03  0.59832889283E+03  0.00000000000E+00 0. -1.
         35    2    1    2    0    0  0.00000000000E+00  0.00000000000E+00 -0.56685766836E+03  0.62980011729E+03  0.27444593560E+03 0.  0.
         25    1    3    3    0    0  0.89229377622E+01 -0.52454960872E+02 -0.19166525973E+03  0.23230736865E+03  0.12000000000E+03 0.  0.
         25    1    3    3    0    0 -0.89229377622E+01  0.52454960872E+02 -0.37519240862E+03  0.39749274865E+03  0.12000000000E+03 0.  0.
<mgrwt>
<rscale>  0 0.27444594E+03</rscale>
<asrwt>0</asrwt>
<pdfrwt beam="1">  1        1 0.92050589E-01 0.27444594E+03</pdfrwt>
<pdfrwt beam="2">  1       -1 0.48417274E-02 0.27444594E+03</pdfrwt>
<totfact> 0.64977162E+03</totfact>
</mgrwt>
</event>
<event>
 5    1  0.1139158E+001  0.2751339E+03  0.7818608E-02  0.1098377E+00
         -4   -1    0    0    0  501 -0.00000000000E+00  0.00000000000E+00  0.13472997023E+03  0.13472997023E+03  0.00000000000E+00 0. -1.
          4   -1    0    0  501    0  0.00000000000E+00 -0.00000000000E+00 -0.14046369741E+03  0.14046369741E+03  0.00000000000E+00 0. -1.
         35    2    1    2    0    0  0.00000000000E+00  0.00000000000E+00 -0.57337271795E+01  0.27519366764E+03  0.27513392936E+03 0.  0.
         25    1    3    3    0    0 -0.34584446656E+02  0.42668091928E+02  0.35974798044E+02  0.13678755833E+03  0.12000000000E+03 0.  0.
         25    1    3    3    0    0  0.34584446656E+02 -0.42668091928E+02 -0.41708525224E+02  0.13840610931E+03  0.12000000000E+03 0.  0.
<mgrwt>
<rscale>  0 0.27513393E+03</rscale>
<asrwt>0</asrwt>
<pdfrwt beam="1">  1        4 0.21609800E-01 0.27513393E+03</pdfrwt>
<pdfrwt beam="2">  1       -4 0.20727688E-01 0.27513393E+03</pdfrwt>
<totfact> 0.77723196E+02</totfact>
</mgrwt>
</event>
<event>
 5    1  0.1139158E+001  0.2745520E+03  0.7818608E-02  0.1098702E+00
          2   -1    0    0  501    0  0.00000000000E+00  0.00000000000E+00  0.44758259746E+02  0.44758259746E+02  0.00000000000E+00 0.  1.
         -2   -1    0    0    0  501 -0.00000000000E+00 -0.00000000000E+00 -0.42103282711E+03  0.42103282711E+03  0.00000000000E+00 0.  1.
         35    2    1    2    0    0  0.00000000000E+00  0.00000000000E+00 -0.37627456737E+03  0.46579108686E+03  0.27455197422E+03 0.  0.
         25    1    3    3    0    0  0.55216131358E+02 -0.23104115523E+02 -0.23794988352E+03  0.27313507351E+03  0.12000000000E+03 0.  0.
         25    1    3    3    0    0 -0.55216131358E+02  0.23104115523E+02 -0.13832468385E+03  0.19265601334E+03  0.12000000000E+03 0.  0.
<mgrwt>
<rscale>  0 0.27455197E+03</rscale>
<asrwt>0</asrwt>
<pdfrwt beam="1">  1        2 0.68858860E-02 0.27455197E+03</pdfrwt>
<pdfrwt beam="2">  1       -2 0.64774282E-01 0.27455197E+03</pdfrwt>
<totfact> 0.23171347E+03</totfact>
</mgrwt>
</event>
<event>
 5    1  0.1139158E+001  0.2748518E+03  0.7818608E-02  0.1098534E+00
          1   -1    0    0  501    0  0.00000000000E+00  0.00000000000E+00  0.22119241928E+02  0.22119241928E+02  0.00000000000E+00 0. -1.
         -1   -1    0    0    0  501 -0.00000000000E+00 -0.00000000000E+00 -0.85382127436E+03  0.85382127436E+03  0.00000000000E+00 0. -1.
         35    2    1    2    0    0  0.00000000000E+00  0.00000000000E+00 -0.83170203243E+03  0.87594051629E+03  0.27485180975E+03 0.  0.
         25    1    3    3    0    0  0.54890902132E+02 -0.33383087476E+02 -0.47618789407E+03  0.49525988342E+03  0.12000000000E+03 0.  0.
         25    1    3    3    0    0 -0.54890902132E+02  0.33383087476E+02 -0.35551413836E+03  0.38068063287E+03  0.12000000000E+03 0.  0.
<mgrwt>
<rscale>  0 0.27485181E+03</rscale>
<asrwt>0</asrwt>
<pdfrwt beam="1">  1        1 0.34029600E-02 0.27485181E+03</pdfrwt>
<pdfrwt beam="2">  1       -1 0.13135713E+00 0.27485181E+03</pdfrwt>
<totfact> 0.15134066E+03</totfact>
</mgrwt>
</event>
<event>
 5    1  0.1139158E+001  0.2752820E+03  0.7818608E-02  0.1098294E+00
         -2   -1    0    0    0  501 -0.00000000000E+00  0.00000000000E+00  0.14259873830E+02  0.14259873830E+02  0.00000000000E+00 0.  1.
          2   -1    0    0  501    0  0.00000000000E+00 -0.00000000000E+00 -0.13285560825E+04  0.13285560825E+04  0.00000000000E+00 0.  1.
         35    2    1    2    0    0  0.00000000000E+00  0.00000000000E+00 -0.13142962087E+04  0.13428159563E+04  0.27528197989E+03 0.  0.
         25    1    3    3    0    0 -0.63505890761E+02 -0.19301563736E+02 -0.59953572207E+03  0.61501921154E+03  0.12000000000E+03 0.  0.
         25    1    3    3    0    0  0.63505890761E+02  0.19301563736E+02 -0.71476048660E+03  0.72779674479E+03  0.12000000000E+03 0.  0.
<mgrwt>
<rscale>  0 0.27528198E+03</rscale>
<asrwt>0</asrwt>
<pdfrwt beam="1">  1        2 0.20439341E+00 0.27528198E+03</pdfrwt>
<pdfrwt beam="2">  1       -2 0.21938250E-02 0.27528198E+03</pdfrwt>
<totfact> 0.11401664E+04</totfact>
</mgrwt>
</event>
<event>
 5    1  0.1139158E+001  0.2739139E+03  0.7818608E-02  0.1099060E+00
         -2   -1    0    0    0  501 -0.00000000000E+00  0.00000000000E+00  0.25476352883E+02  0.25476352883E+02  0.00000000000E+00 0.  1.
          2   -1    0    0  501    0  0.00000000000E+00 -0.00000000000E+00 -0.73625922502E+03  0.73625922502E+03  0.00000000000E+00 0.  1.
         35    2    1    2    0    0  0.00000000000E+00  0.00000000000E+00 -0.71078287214E+03  0.76173557791E+03  0.27391385383E+03 0.  0.
         25    1    3    3    0    0 -0.40988983027E+02  0.25525603053E+02 -0.23023264164E+03  0.26408090127E+03  0.12000000000E+03 0.  0.
         25    1    3    3    0    0  0.40988983027E+02 -0.25525603053E+02 -0.48055023050E+03  0.49765467663E+03  0.12000000000E+03 0.  0.
<mgrwt>
<rscale>  0 0.27391385E+03</rscale>
<asrwt>0</asrwt>
<pdfrwt beam="1">  1        2 0.11327066E+00 0.27391385E+03</pdfrwt>
<pdfrwt beam="2">  1       -2 0.39194386E-02 0.27391385E+03</pdfrwt>
<totfact> 0.11123525E+04</totfact>
</mgrwt>
</event>
<event>
 5    1  0.1139158E+001  0.2737830E+03  0.7818608E-02  0.1099134E+00
         -2   -1    0    0    0  501 -0.00000000000E+00  0.00000000000E+00  0.53315066592E+02  0.53315066592E+02  0.00000000000E+00 0. -1.
          2   -1    0    0  501    0  0.00000000000E+00 -0.00000000000E+00 -0.35148195768E+03  0.35148195768E+03  0.00000000000E+00 0. -1.
         35    2    1    2    0    0  0.00000000000E+00  0.00000000000E+00 -0.29816689109E+03  0.40479702427E+03  0.27378300882E+03 0.  0.
         25    1    3    3    0    0 -0.44124037643E+02 -0.48659287435E+02 -0.15642075478E+03  0.20780305454E+03  0.12000000000E+03 0.  0.
         25    1    3    3    0    0  0.44124037643E+02  0.48659287435E+02 -0.14174613631E+03  0.19699396973E+03  0.12000000000E+03 0.  0.
<mgrwt>
<rscale>  0 0.27378301E+03</rscale>
<asrwt>0</asrwt>
<pdfrwt beam="1">  1        2 0.54074147E-01 0.27378301E+03</pdfrwt>
<pdfrwt beam="2">  1       -2 0.82023180E-02 0.27378301E+03</pdfrwt>
<totfact> 0.83010103E+03</totfact>
</mgrwt>
</event>
<event>
 5    1  0.1139158E+001  0.2748164E+03  0.7818608E-02  0.1098554E+00
          1   -1    0    0  501    0  0.00000000000E+00  0.00000000000E+00  0.58225263976E+03  0.58225263976E+03  0.00000000000E+00 0. -1.
         -1   -1    0    0    0  501 -0.00000000000E+00 -0.00000000000E+00 -0.32427530420E+02  0.32427530420E+02  0.00000000000E+00 0. -1.
         35    2    1    2    0    0  0.00000000000E+00  0.00000000000E+00  0.54982510934E+03  0.61468017018E+03  0.27481641281E+03 0.  0.
         25    1    3    3    0    0 -0.30537769346E+01 -0.66621831325E+02  0.26202073089E+03  0.29580848091E+03  0.12000000000E+03 0.  0.
         25    1    3    3    0    0  0.30537769346E+01  0.66621831325E+02  0.28780437845E+03  0.31887168927E+03  0.12000000000E+03 0.  0.
<mgrwt>
<rscale>  0 0.27481641E+03</rscale>
<asrwt>0</asrwt>
<pdfrwt beam="1">  1        1 0.89577321E-01 0.27481641E+03</pdfrwt>
<pdfrwt beam="2">  1       -1 0.49888513E-02 0.27481641E+03</pdfrwt>
<totfact> 0.64515772E+03</totfact>
</mgrwt>
</event>
<event>
 5    1  0.1139158E+001  0.2742907E+03  0.7818608E-02  0.1098849E+00
          1   -1    0    0  501    0  0.00000000000E+00  0.00000000000E+00  0.11057917158E+03  0.11057917158E+03  0.00000000000E+00 0.  1.
         -1   -1    0    0    0  501 -0.00000000000E+00 -0.00000000000E+00 -0.17009391282E+03  0.17009391282E+03  0.00000000000E+00 0.  1.
         35    2    1    2    0    0  0.00000000000E+00  0.00000000000E+00 -0.59514741238E+02  0.28067308441E+03  0.27429067772E+03 0.  0.
         25    1    3    3    0    0  0.52229993352E+02 -0.73443914492E+01  0.11516421998E+02  0.13158472657E+03  0.12000000000E+03 0.  0.
         25    1    3    3    0    0 -0.52229993352E+02  0.73443914492E+01 -0.71031163236E+02  0.14908835784E+03  0.12000000000E+03 0.  0.
<mgrwt>
<rscale>  0 0.27429068E+03</rscale>
<asrwt>0</asrwt>
<pdfrwt beam="1">  1        1 0.17012180E-01 0.27429068E+03</pdfrwt>
<pdfrwt beam="2">  1       -1 0.26168294E-01 0.27429068E+03</pdfrwt>
<totfact> 0.40447387E+03</totfact>
</mgrwt>
</event>
<event>
 5    1  0.1139158E+001  0.2751118E+03  0.7818608E-02  0.1098389E+00
         -2   -1    0    0    0  501 -0.00000000000E+00  0.00000000000E+00  0.25533382399E+02  0.25533382399E+02  0.00000000000E+00 0.  1.
          2   -1    0    0  501    0  0.00000000000E+00 -0.00000000000E+00 -0.74105443856E+03  0.74105443856E+03  0.00000000000E+00 0.  1.
         35    2    1    2    0    0  0.00000000000E+00  0.00000000000E+00 -0.71552105616E+03  0.76658782095E+03  0.27511180533E+03 0.  0.
         25    1    3    3    0    0  0.54306377854E+02 -0.35077405668E+01 -0.24769928944E+03  0.28056447549E+03  0.12000000000E+03 0.  0.
         25    1    3    3    0    0 -0.54306377854E+02  0.35077405668E+01 -0.46782176672E+03  0.48602334546E+03  0.12000000000E+03 0.  0.
<mgrwt>
<rscale>  0 0.27511181E+03</rscale>
<asrwt>0</asrwt>
<pdfrwt beam="1">  1        2 0.11400837E+00 0.27511181E+03</pdfrwt>
<pdfrwt beam="2">  1       -2 0.39282128E-02 0.27511181E+03</pdfrwt>
<totfact> 0.10999381E+04</totfact>
</mgrwt>
</event>
<event>
 5    1  0.1139158E+001  0.2747869E+03  0.7818608E-02  0.1098571E+00
          1   -1    0    0  501    0  0.00000000000E+00  0.00000000000E+00  0.38448912382E+03  0.38448912382E+03  0.00000000000E+00 0. -1.
         -1   -1    0    0    0  501 -0.00000000000E+00 -0.00000000000E+00 -0.49096200358E+02  0.49096200358E+02  0.00000000000E+00 0. -1.
         35    2    1    2    0    0  0.00000000000E+00  0.00000000000E+00  0.33539292346E+03  0.43358532418E+03  0.27478686328E+03 0.  0.
         25    1    3    3    0    0 -0.65489690794E+02  0.93779964976E+01  0.15190892450E+03  0.20458046769E+03  0.12000000000E+03 0.  0.
         25    1    3    3    0    0  0.65489690794E+02 -0.93779964976E+01  0.18348399897E+03  0.22900485649E+03  0.12000000000E+03 0.  0.
<mgrwt>
<rscale>  0 0.27478686E+03</rscale>
<asrwt>0</asrwt>
<pdfrwt beam="1">  1        1 0.59152171E-01 0.27478686E+03</pdfrwt>
<pdfrwt beam="2">  1       -1 0.75532618E-02 0.27478686E+03</pdfrwt>
<totfact> 0.59616319E+03</totfact>
</mgrwt>
</event>
<event>
 5    1  0.1139158E+001  0.2753533E+03  0.7818608E-02  0.1098254E+00
          1   -1    0    0  501    0  0.00000000000E+00  0.00000000000E+00  0.61790576231E+03  0.61790576231E+03  0.00000000000E+00 0.  1.
         -1   -1    0    0    0  501 -0.00000000000E+00 -0.00000000000E+00 -0.30675976151E+02  0.30675976151E+02  0.00000000000E+00 0.  1.
         35    2    1    2    0    0  0.00000000000E+00  0.00000000000E+00  0.58722978616E+03  0.64858173847E+03  0.27535331796E+03 0.  0.
         25    1    3    3    0    0 -0.19229156036E+02 -0.59438733390E+02  0.23346366820E+03  0.26982959037E+03  0.12000000000E+03 0.  0.
         25    1    3    3    0    0  0.19229156036E+02  0.59438733390E+02  0.35376611796E+03  0.37875214809E+03  0.12000000000E+03 0.  0.
<mgrwt>
<rscale>  0 0.27535332E+03</rscale>
<asrwt>0</asrwt>
<pdfrwt beam="1">  1        1 0.95062416E-01 0.27535332E+03</pdfrwt>
<pdfrwt beam="2">  1       -1 0.47193814E-02 0.27535332E+03</pdfrwt>
<totfact> 0.64555937E+03</totfact>
</mgrwt>
</event>
<event>
 5    1  0.1139158E+001  0.2740439E+03  0.7818608E-02  0.1098987E+00
         -2   -1    0    0    0  501 -0.00000000000E+00  0.00000000000E+00  0.13171299210E+02  0.13171299210E+02  0.00000000000E+00 0. -1.
          2   -1    0    0  501    0  0.00000000000E+00 -0.00000000000E+00 -0.14254490953E+04  0.14254490953E+04  0.00000000000E+00 0. -1.
         35    2    1    2    0    0  0.00000000000E+00  0.00000000000E+00 -0.14122777961E+04  0.14386203945E+04  0.27404391286E+03 0.  0.
         25    1    3    3    0    0 -0.46497853812E+02 -0.64180795311E+01 -0.46149555281E+03  0.47914651978E+03  0.12000000000E+03 0.  0.
         25    1    3    3    0    0  0.46497853812E+02  0.64180795311E+01 -0.95078224328E+03  0.95947387473E+03  0.12000000000E+03 0.  0.
<mgrwt>
<rscale>  0 0.27404391E+03</rscale>
<asrwt>0</asrwt>
<pdfrwt beam="1">  1        2 0.21929971E+00 0.27404391E+03</pdfrwt>
<pdfrwt beam="2">  1       -2 0.20263551E-02 0.27404391E+03</pdfrwt>
<totfact> 0.11347212E+04</totfact>
</mgrwt>
</event>
<event>
 5    1  0.1139158E+001  0.2751913E+03  0.7818608E-02  0.1098345E+00
         -3   -1    0    0    0  501 -0.00000000000E+00  0.00000000000E+00  0.59343155853E+03  0.59343155853E+03  0.00000000000E+00 0.  1.
          3   -1    0    0  501    0  0.00000000000E+00 -0.00000000000E+00 -0.31903521680E+02  0.31903521680E+02  0.00000000000E+00 0.  1.
         35    2    1    2    0    0  0.00000000000E+00  0.00000000000E+00  0.56152803685E+03  0.62533508022E+03  0.27519125417E+03 0.  0.
         25    1    3    3    0    0 -0.65502016292E+01 -0.65242006330E+02  0.31545999912E+03  0.34382326213E+03  0.12000000000E+03 0.  0.
         25    1    3    3    0    0  0.65502016292E+01  0.65242006330E+02  0.24606803773E+03  0.28151181809E+03  0.12000000000E+03 0.  0.
<mgrwt>
<rscale>  0 0.27519125E+03</rscale>
<asrwt>0</asrwt>
<pdfrwt beam="1">  1        3 0.49082345E-02 0.27519125E+03</pdfrwt>
<pdfrwt beam="2">  1       -3 0.91297155E-01 0.27519125E+03</pdfrwt>
<totfact> 0.66313229E+02</totfact>
</mgrwt>
</event>
<event>
 5    1  0.1139158E+001  0.2755688E+03  0.7818608E-02  0.1098134E+00
          3   -1    0    0  501    0  0.00000000000E+00  0.00000000000E+00  0.17864921619E+03  0.17864921619E+03  0.00000000000E+00 0. -1.
         -3   -1    0    0    0  501 -0.00000000000E+00 -0.00000000000E+00 -0.10626712829E+03  0.10626712829E+03  0.00000000000E+00 0. -1.
         35    2    1    2    0    0  0.00000000000E+00  0.00000000000E+00  0.72382087902E+02  0.28491634448E+03  0.27556878760E+03 0.  0.
         25    1    3    3    0    0 -0.39734153942E+02 -0.85029268961E+01 -0.19807363729E+02  0.12823195551E+03  0.12000000000E+03 0.  0.
         25    1    3    3    0    0  0.39734153942E+02  0.85029268961E+01  0.92189451631E+02  0.15668438897E+03  0.12000000000E+03 0.  0.
<mgrwt>
<rscale>  0 0.27556879E+03</rscale>
<asrwt>0</asrwt>
<pdfrwt beam="1">  1        3 0.27484495E-01 0.27556879E+03</pdfrwt>
<pdfrwt beam="2">  1       -3 0.16348789E-01 0.27556879E+03</pdfrwt>
<totfact> 0.10274009E+03</totfact>
</mgrwt>
</event>
<event>
 5    1  0.1139158E+001  0.2757320E+03  0.7818608E-02  0.1098043E+00
         -1   -1    0    0    0  501 -0.00000000000E+00  0.00000000000E+00  0.43425292438E+03  0.43425292438E+03  0.00000000000E+00 0. -1.
          1   -1    0    0  501    0  0.00000000000E+00 -0.00000000000E+00 -0.43769511354E+02  0.43769511354E+02  0.00000000000E+00 0. -1.
         35    2    1    2    0    0  0.00000000000E+00  0.00000000000E+00  0.39048341303E+03  0.47802243574E+03  0.27573203154E+03 0.  0.
         25    1    3    3    0    0  0.18042774263E+01 -0.23202081182E+02  0.30578061585E+03  0.32930742023E+03  0.12000000000E+03 0.  0.
         25    1    3    3    0    0 -0.18042774263E+01  0.23202081182E+02  0.84702797183E+02  0.14871501551E+03  0.12000000000E+03 0.  0.
<mgrwt>
<rscale>  0 0.27573203E+03</rscale>
<asrwt>0</asrwt>
<pdfrwt beam="1">  1        1 0.67337713E-02 0.27573203E+03</pdfrwt>
<pdfrwt beam="2">  1       -1 0.66808139E-01 0.27573203E+03</pdfrwt>
<totfact> 0.25867564E+03</totfact>
</mgrwt>
</event>
<event>
 5    1  0.1139158E+001  0.2748522E+03  0.7818608E-02  0.1098534E+00
         -2   -1    0    0    0  501 -0.00000000000E+00  0.00000000000E+00  0.20971362246E+02  0.20971362246E+02  0.00000000000E+00 0.  1.
          2   -1    0    0  501    0  0.00000000000E+00 -0.00000000000E+00 -0.90055849803E+03  0.90055849803E+03  0.00000000000E+00 0.  1.
         35    2    1    2    0    0  0.00000000000E+00  0.00000000000E+00 -0.87958713578E+03  0.92152986028E+03  0.27485224020E+03 0.  0.
         25    1    3    3    0    0  0.12719074142E+02  0.44215332838E+01 -0.65977054110E+03  0.67072982020E+03  0.12000000000E+03 0.  0.
         25    1    3    3    0    0 -0.12719074142E+02 -0.44215332838E+01 -0.21981659469E+03  0.25080004008E+03  0.12000000000E+03 0.  0.
<mgrwt>
<rscale>  0 0.27485224E+03</rscale>
<asrwt>0</asrwt>
<pdfrwt beam="1">  1        2 0.13854746E+00 0.27485224E+03</pdfrwt>
<pdfrwt beam="2">  1       -2 0.32263635E-02 0.27485224E+03</pdfrwt>
<totfact> 0.11496246E+04</totfact>
</mgrwt>
</event>
<event>
 5    1  0.1139158E+001  0.2746314E+03  0.7818608E-02  0.1098658E+00
          2   -1    0    0  501    0  0.00000000000E+00  0.00000000000E+00  0.17433118608E+03  0.17433118608E+03  0.00000000000E+00 0.  1.
         -2   -1    0    0    0  501 -0.00000000000E+00 -0.00000000000E+00 -0.10815964817E+03  0.10815964817E+03  0.00000000000E+00 0.  1.
         35    2    1    2    0    0  0.00000000000E+00  0.00000000000E+00  0.66171537907E+02  0.28249083425E+03  0.27463138751E+03 0.  0.
         25    1    3    3    0    0 -0.51431389179E+01 -0.55374976645E+02  0.71057802224E+02  0.15014010515E+03  0.12000000000E+03 0.  0.
         25    1    3    3    0    0  0.51431389179E+01  0.55374976645E+02 -0.48862643167E+01  0.13235072911E+03  0.12000000000E+03 0.  0.
<mgrwt>
<rscale>  0 0.27463139E+03</rscale>
<asrwt>0</asrwt>
<pdfrwt beam="1">  1        2 0.26820183E-01 0.27463139E+03</pdfrwt>
<pdfrwt beam="2">  1       -2 0.16639946E-01 0.27463139E+03</pdfrwt>
<totfact> 0.56746655E+03</totfact>
</mgrwt>
</event>
<event>
 5    1  0.1139158E+001  0.2748043E+03  0.7818608E-02  0.1098561E+00
         -2   -1    0    0    0  501 -0.00000000000E+00  0.00000000000E+00  0.27082151267E+02  0.27082151267E+02  0.00000000000E+00 0. -1.
          2   -1    0    0  501    0  0.00000000000E+00 -0.00000000000E+00 -0.69711413871E+03  0.69711413871E+03  0.00000000000E+00 0. -1.
         35    2    1    2    0    0  0.00000000000E+00  0.00000000000E+00 -0.67003198744E+03  0.72419628997E+03  0.27480429803E+03 0.  0.
         25    1    3    3    0    0  0.41871079602E+02  0.41410766009E+02 -0.25120995914E+03  0.28456015606E+03  0.12000000000E+03 0.  0.
         25    1    3    3    0    0 -0.41871079602E+02 -0.41410766009E+02 -0.41882202830E+03  0.43963613391E+03  0.12000000000E+03 0.  0.
<mgrwt>
<rscale>  0 0.27480430E+03</rscale>
<asrwt>0</asrwt>
<pdfrwt beam="1">  1        2 0.10724831E+00 0.27480430E+03</pdfrwt>
<pdfrwt beam="2">  1       -2 0.41664854E-02 0.27480430E+03</pdfrwt>
<totfact> 0.10848279E+04</totfact>
</mgrwt>
</event>
<event>
 5    1  0.1139158E+001  0.2746845E+03  0.7818608E-02  0.1098628E+00
         -4   -1    0    0    0  501 -0.00000000000E+00  0.00000000000E+00  0.11354961636E+03  0.11354961636E+03  0.00000000000E+00 0.  1.
          4   -1    0    0  501    0  0.00000000000E+00 -0.00000000000E+00 -0.16612032211E+03  0.16612032211E+03  0.00000000000E+00 0.  1.
         35    2    1    2    0    0  0.00000000000E+00  0.00000000000E+00 -0.52570705751E+02  0.27966993846E+03  0.27468453793E+03 0.  0.
         25    1    3    3    0    0 -0.17792531634E+02 -0.64091123525E+02 -0.19955397696E+02  0.13864510159E+03  0.12000000000E+03 0.  0.
         25    1    3    3    0    0  0.17792531634E+02  0.64091123525E+02 -0.32615308054E+02  0.14102483688E+03  0.12000000000E+03 0.  0.
<mgrwt>
<rscale>  0 0.27468454E+03</rscale>
<asrwt>0</asrwt>
<pdfrwt beam="1">  1        4 0.25556973E-01 0.27468454E+03</pdfrwt>
<pdfrwt beam="2">  1       -4 0.17469172E-01 0.27468454E+03</pdfrwt>
<totfact> 0.77590779E+02</totfact>
</mgrwt>
</event>
<event>
 5    1  0.1139158E+001  0.2750583E+03  0.7818608E-02  0.1098419E+00
          1   -1    0    0  501    0  0.00000000000E+00  0.00000000000E+00  0.14807390558E+04  0.14807390558E+04  0.00000000000E+00 0.  1.
         -1   -1    0    0    0  501 -0.00000000000E+00 -0.00000000000E+00 -0.12773528649E+02  0.12773528649E+02  0.00000000000E+00 0.  1.
         35    2    1    2    0    0  0.00000000000E+00  0.00000000000E+00  0.14679655271E+04  0.14935125844E+04  0.27505826838E+03 0.  0.
         25    1    3    3    0    0 -0.68908974449E+01 -0.63121847199E+02  0.61472335730E+03  0.62953685998E+03  0.12000000000E+03 0.  0.
         25    1    3    3    0    0  0.68908974449E+01  0.63121847199E+02  0.85324216981E+03  0.86397572443E+03  0.12000000000E+03 0.  0.
<mgrwt>
<rscale>  0 0.27505827E+03</rscale>
<asrwt>0</asrwt>
<pdfrwt beam="1">  1        1 0.22780587E+00 0.27505827E+03</pdfrwt>
<pdfrwt beam="2">  1       -1 0.19651594E-02 0.27505827E+03</pdfrwt>
<totfact> 0.51855574E+03</totfact>
</mgrwt>
</event>
<event>
 5    1  0.1139158E+001  0.2754004E+03  0.7818608E-02  0.1098228E+00
         -1   -1    0    0    0  501 -0.00000000000E+00  0.00000000000E+00  0.49275760378E+02  0.49275760378E+02  0.00000000000E+00 0.  1.
          1   -1    0    0  501    0  0.00000000000E+00 -0.00000000000E+00 -0.38480057288E+03  0.38480057288E+03  0.00000000000E+00 0.  1.
         35    2    1    2    0    0  0.00000000000E+00  0.00000000000E+00 -0.33552481251E+03  0.43407633326E+03  0.27540036908E+03 0.  0.
         25    1    3    3    0    0  0.17576826045E+02  0.10609222819E+02 -0.26917534996E+03  0.29542658893E+03  0.12000000000E+03 0.  0.
         25    1    3    3    0    0 -0.17576826045E+02 -0.10609222819E+02 -0.66349462549E+02  0.13864974433E+03  0.12000000000E+03 0.  0.
<mgrwt>
<rscale>  0 0.27540037E+03</rscale>
<asrwt>0</asrwt>
<pdfrwt beam="1">  1        1 0.59200087E-01 0.27540037E+03</pdfrwt>
<pdfrwt beam="2">  1       -1 0.75808864E-02 0.27540037E+03</pdfrwt>
<totfact> 0.59228612E+03</totfact>
</mgrwt>
</event>
<event>
 5    1  0.1139158E+001  0.2747777E+03  0.7818608E-02  0.1098576E+00
         -2   -1    0    0    0  501 -0.00000000000E+00  0.00000000000E+00  0.18266800546E+02  0.18266800546E+02  0.00000000000E+00 0. -1.
          2   -1    0    0  501    0  0.00000000000E+00 -0.00000000000E+00 -0.10333332075E+04  0.10333332075E+04  0.00000000000E+00 0. -1.
         35    2    1    2    0    0  0.00000000000E+00  0.00000000000E+00 -0.10150664070E+04  0.10516000081E+04  0.27477766721E+03 0.  0.
         25    1    3    3    0    0  0.32179143529E+02 -0.58611419380E+02 -0.51600124023E+03  0.53397385299E+03  0.12000000000E+03 0.  0.
         25    1    3    3    0    0 -0.32179143529E+02  0.58611419380E+02 -0.49906516675E+03  0.51762615508E+03  0.12000000000E+03 0.  0.
<mgrwt>
<rscale>  0 0.27477767E+03</rscale>
<asrwt>0</asrwt>
<pdfrwt beam="1">  1        2 0.15897435E+00 0.27477767E+03</pdfrwt>
<pdfrwt beam="2">  1       -2 0.28102768E-02 0.27477767E+03</pdfrwt>
<totfact> 0.11669666E+04</totfact>
</mgrwt>
</event>
<event>
 5    1  0.1139158E+001  0.2746724E+03  0.7818608E-02  0.1098635E+00
          1   -1    0    0  501    0  0.00000000000E+00  0.00000000000E+00  0.79507198287E+03  0.79507198287E+03  0.00000000000E+00 0.  1.
         -1   -1    0    0    0  501 -0.00000000000E+00 -0.00000000000E+00 -0.23722669580E+02  0.23722669580E+02  0.00000000000E+00 0.  1.
         35    2    1    2    0    0  0.00000000000E+00  0.00000000000E+00  0.77134931329E+03  0.81879465245E+03  0.27467238625E+03 0.  0.
         25    1    3    3    0    0 -0.32270019620E+01  0.10699818395E+02  0.58197505188E+03  0.59432302720E+03  0.12000000000E+03 0.  0.
         25    1    3    3    0    0  0.32270019620E+01 -0.10699818395E+02  0.18937426141E+03  0.22447162525E+03  0.12000000000E+03 0.  0.
<mgrwt>
<rscale>  0 0.27467239E+03</rscale>
<asrwt>0</asrwt>
<pdfrwt beam="1">  1        1 0.12231875E+00 0.27467239E+03</pdfrwt>
<pdfrwt beam="2">  1       -1 0.36496421E-02 0.27467239E+03</pdfrwt>
<totfact> 0.65459946E+03</totfact>
</mgrwt>
</event>
<event>
 5    1  0.1139158E+001  0.2747385E+03  0.7818608E-02  0.1098598E+00
          3   -1    0    0  501    0  0.00000000000E+00  0.00000000000E+00  0.15848818420E+03  0.15848818420E+03  0.00000000000E+00 0. -1.
         -3   -1    0    0    0  501 -0.00000000000E+00 -0.00000000000E+00 -0.11906445203E+03  0.11906445203E+03  0.00000000000E+00 0. -1.
         35    2    1    2    0    0  0.00000000000E+00  0.00000000000E+00  0.39423732171E+02  0.27755263623E+03  0.27473848515E+03 0.  0.
         25    1    3    3    0    0  0.66838591818E+02 -0.99460732653E+00  0.18311228459E+02  0.13857737076E+03  0.12000000000E+03 0.  0.
         25    1    3    3    0    0 -0.66838591818E+02  0.99460732653E+00  0.21112503713E+02  0.13897526547E+03  0.12000000000E+03 0.  0.
<mgrwt>
<rscale>  0 0.27473849E+03</rscale>
<asrwt>0</asrwt>
<pdfrwt beam="1">  1        3 0.24382798E-01 0.27473849E+03</pdfrwt>
<pdfrwt beam="2">  1       -3 0.18317608E-01 0.27473849E+03</pdfrwt>
<totfact> 0.10480983E+03</totfact>
</mgrwt>
</event>
<event>
 5    1  0.1139158E+001  0.2756768E+03  0.7818608E-02  0.1098074E+00
          2   -1    0    0  501    0  0.00000000000E+00  0.00000000000E+00  0.50407813860E+03  0.50407813860E+03  0.00000000000E+00 0.  1.
         -2   -1    0    0    0  501 -0.00000000000E+00 -0.00000000000E+00 -0.37691414324E+02  0.37691414324E+02  0.00000000000E+00 0.  1.
         35    2    1    2    0    0  0.00000000000E+00  0.00000000000E+00  0.46638672427E+03  0.54176955292E+03  0.27567675255E+03 0.  0.
         25    1    3    3    0    0 -0.42493548768E+02 -0.51162863588E+02  0.25927090087E+03  0.29333383769E+03  0.12000000000E+03 0.  0.
         25    1    3    3    0    0  0.42493548768E+02  0.51162863588E+02  0.20711582340E+03  0.24843571523E+03  0.12000000000E+03 0.  0.
<mgrwt>
<rscale>  0 0.27567675E+03</rscale>
<asrwt>0</asrwt>
<pdfrwt beam="1">  1        2 0.77550478E-01 0.27567675E+03</pdfrwt>
<pdfrwt beam="2">  1       -2 0.57986795E-02 0.27567675E+03</pdfrwt>
<totfact> 0.95685871E+03</totfact>
</mgrwt>
</event>
<event>
 5    1  0.1139158E+001  0.2741881E+03  0.7818608E-02  0.1098906E+00
         -1   -1    0    0    0  501 -0.00000000000E+00  0.00000000000E+00  0.78938738039E+01  0.78938738039E+01  0.00000000000E+00 0.  1.
          1   -1    0    0  501    0  0.00000000000E+00 -0.00000000000E+00 -0.23809318467E+04  0.23809318467E+04  0.00000000000E+00 0.  1.
         35    2    1    2    0    0  0.00000000000E+00  0.00000000000E+00 -0.23730379729E+04  0.23888257205E+04  0.27418807803E+03 0.  0.
         25    1    3    3    0    0  0.51355741055E+02 -0.18260199007E+02 -0.15152797606E+04  0.15210008547E+04  0.12000000000E+03 0.  0.
         25    1    3    3    0    0 -0.51355741055E+02  0.18260199007E+02 -0.85775821229E+03  0.86782486583E+03  0.12000000000E+03 0.  0.
<mgrwt>
<rscale>  0 0.27418808E+03</rscale>
<asrwt>0</asrwt>
<pdfrwt beam="1">  1        1 0.36629745E+00 0.27418808E+03</pdfrwt>
<pdfrwt beam="2">  1       -1 0.12144413E-02 0.27418808E+03</pdfrwt>
<totfact> 0.26986108E+03</totfact>
</mgrwt>
</event>
<event>
 5    1  0.1139158E+001  0.2749316E+03  0.7818608E-02  0.1098490E+00
         -2   -1    0    0    0  501 -0.00000000000E+00  0.00000000000E+00  0.13542570736E+02  0.13542570736E+02  0.00000000000E+00 0. -1.
          2   -1    0    0  501    0  0.00000000000E+00 -0.00000000000E+00 -0.13953665061E+04  0.13953665061E+04  0.00000000000E+00 0. -1.
         35    2    1    2    0    0  0.00000000000E+00  0.00000000000E+00 -0.13818239353E+04  0.14089090768E+04  0.27493162504E+03 0.  0.
         25    1    3    3    0    0  0.42954602808E+02 -0.22120931193E+02 -0.45260984968E+03  0.47073358657E+03  0.12000000000E+03 0.  0.
         25    1    3    3    0    0 -0.42954602808E+02  0.22120931193E+02 -0.92921408565E+03  0.93817549023E+03  0.12000000000E+03 0.  0.
<mgrwt>
<rscale>  0 0.27493163E+03</rscale>
<asrwt>0</asrwt>
<pdfrwt beam="1">  1        2 0.21467173E+00 0.27493163E+03</pdfrwt>
<pdfrwt beam="2">  1       -2 0.20834728E-02 0.27493163E+03</pdfrwt>
<totfact> 0.11309799E+04</totfact>
</mgrwt>
</event>
<event>
 5    1  0.1139158E+001  0.2748152E+03  0.7818608E-02  0.1098555E+00
          1   -1    0    0  501    0  0.00000000000E+00  0.00000000000E+00  0.11644509790E+04  0.11644509790E+04  0.00000000000E+00 0.  1.
         -1   -1    0    0    0  501 -0.00000000000E+00 -0.00000000000E+00 -0.16214376352E+02  0.16214376352E+02  0.00000000000E+00 0.  1.
         35    2    1    2    0    0  0.00000000000E+00  0.00000000000E+00  0.11482366027E+04  0.11806653554E+04  0.27481518457E+03 0.  0.
         25    1    3    3    0    0 -0.22026975550E+02 -0.13920967826E+01  0.84562149730E+03  0.85437862934E+03  0.12000000000E+03 0.  0.
         25    1    3    3    0    0  0.22026975550E+02  0.13920967826E+01  0.30261510539E+03  0.32628672605E+03  0.12000000000E+03 0.  0.
<mgrwt>
<rscale>  0 0.27481518E+03</rscale>
<asrwt>0</asrwt>
<pdfrwt beam="1">  1        1 0.17914624E+00 0.27481518E+03</pdfrwt>
<pdfrwt beam="2">  1       -1 0.24945204E-02 0.27481518E+03</pdfrwt>
<totfact> 0.60089441E+03</totfact>
</mgrwt>
</event>
<event>
 5    1  0.1139158E+001  0.2748592E+03  0.7818608E-02  0.1098530E+00
         -1   -1    0    0    0  501 -0.00000000000E+00  0.00000000000E+00  0.94224480284E+01  0.94224480284E+01  0.00000000000E+00 0. -1.
          1   -1    0    0  501    0  0.00000000000E+00 -0.00000000000E+00 -0.20044568305E+04  0.20044568305E+04  0.00000000000E+00 0. -1.
         35    2    1    2    0    0  0.00000000000E+00  0.00000000000E+00 -0.19950343825E+04  0.20138792786E+04  0.27485916620E+03 0.  0.
         25    1    3    3    0    0 -0.51853121873E+02  0.20239255989E+02 -0.72449449982E+03  0.73647176049E+03  0.12000000000E+03 0.  0.
         25    1    3    3    0    0  0.51853121873E+02 -0.20239255989E+02 -0.12705398827E+04  0.12774075181E+04  0.12000000000E+03 0.  0.
<mgrwt>
<rscale>  0 0.27485917E+03</rscale>
<asrwt>0</asrwt>
<pdfrwt beam="1">  1        1 0.30837839E+00 0.27485917E+03</pdfrwt>
<pdfrwt beam="2">  1       -1 0.14496054E-02 0.27485917E+03</pdfrwt>
<totfact> 0.36763836E+03</totfact>
</mgrwt>
</event>
<event>
 5    1  0.1139158E+001  0.2752118E+03  0.7818608E-02  0.1098333E+00
          1   -1    0    0  501    0  0.00000000000E+00  0.00000000000E+00  0.35548720391E+03  0.35548720391E+03  0.00000000000E+00 0. -1.
         -1   -1    0    0    0  501 -0.00000000000E+00 -0.00000000000E+00 -0.53266007261E+02  0.53266007261E+02  0.00000000000E+00 0. -1.
         35    2    1    2    0    0  0.00000000000E+00  0.00000000000E+00  0.30222119665E+03  0.40875321117E+03  0.27521180196E+03 0.  0.
         25    1    3    3    0    0  0.51821072309E+02  0.39740519040E+02  0.12667632545E+03  0.18631055745E+03  0.12000000000E+03 0.  0.
         25    1    3    3    0    0 -0.51821072309E+02 -0.39740519040E+02  0.17554487121E+03  0.22244265372E+03  0.12000000000E+03 0.  0.
<mgrwt>
<rscale>  0 0.27521180E+03</rscale>
<asrwt>0</asrwt>
<pdfrwt beam="1">  1        1 0.54690338E-01 0.27521180E+03</pdfrwt>
<pdfrwt beam="2">  1       -1 0.81947706E-02 0.27521180E+03</pdfrwt>
<totfact> 0.58173709E+03</totfact>
</mgrwt>
</event>
<event>
 5    1  0.1139158E+001  0.2753278E+03  0.7818608E-02  0.1098269E+00
         -2   -1    0    0    0  501 -0.00000000000E+00  0.00000000000E+00  0.29933267090E+02  0.29933267090E+02  0.00000000000E+00 0.  1.
          2   -1    0    0  501    0  0.00000000000E+00 -0.00000000000E+00 -0.63311998460E+03  0.63311998460E+03  0.00000000000E+00 0.  1.
         35    2    1    2    0    0  0.00000000000E+00  0.00000000000E+00 -0.60318671751E+03  0.66305325169E+03  0.27532780171E+03 0.  0.
         25    1    3    3    0    0 -0.19815835755E+02  0.59031663496E+02 -0.36411214760E+03  0.38840064453E+03  0.12000000000E+03 0.  0.
         25    1    3    3    0    0  0.19815835755E+02 -0.59031663496E+02 -0.23907456991E+03  0.27465260716E+03  0.12000000000E+03 0.  0.
<mgrwt>
<rscale>  0 0.27532780E+03</rscale>
<asrwt>0</asrwt>
<pdfrwt beam="1">  1        2 0.97403063E-01 0.27532780E+03</pdfrwt>
<pdfrwt beam="2">  1       -2 0.46051186E-02 0.27532780E+03</pdfrwt>
<totfact> 0.10463712E+04</totfact>
</mgrwt>
</event>
<event>
 5    1  0.1139158E+001  0.2759247E+03  0.7818608E-02  0.1097936E+00
         -1   -1    0    0    0  501 -0.00000000000E+00  0.00000000000E+00  0.12450693020E+02  0.12450693020E+02  0.00000000000E+00 0.  1.
          1   -1    0    0  501    0  0.00000000000E+00 -0.00000000000E+00 -0.15287185455E+04  0.15287185455E+04  0.00000000000E+00 0.  1.
         35    2    1    2    0    0  0.00000000000E+00  0.00000000000E+00 -0.15162678525E+04  0.15411692385E+04  0.27592466599E+03 0.  0.
         25    1    3    3    0    0  0.51208662779E+02  0.44640436620E+02 -0.73410367461E+03  0.74694263555E+03  0.12000000000E+03 0.  0.
         25    1    3    3    0    0 -0.51208662779E+02 -0.44640436620E+02 -0.78216417788E+03  0.79422660298E+03  0.12000000000E+03 0.  0.
<mgrwt>
<rscale>  0 0.27592467E+03</rscale>
<asrwt>0</asrwt>
<pdfrwt beam="1">  1        1 0.23518752E+00 0.27592467E+03</pdfrwt>
<pdfrwt beam="2">  1       -1 0.19154908E-02 0.27592467E+03</pdfrwt>
<totfact> 0.50033397E+03</totfact>
</mgrwt>
</event>
<event>
 5    1  0.1139158E+001  0.2749987E+03  0.7818608E-02  0.1098452E+00
          2   -1    0    0  501    0  0.00000000000E+00  0.00000000000E+00  0.30527181135E+02  0.30527181135E+02  0.00000000000E+00 0. -1.
         -2   -1    0    0    0  501 -0.00000000000E+00 -0.00000000000E+00 -0.61931930860E+03  0.61931930860E+03  0.00000000000E+00 0. -1.
         35    2    1    2    0    0  0.00000000000E+00  0.00000000000E+00 -0.58879212746E+03  0.64984648973E+03  0.27499871065E+03 0.  0.
         25    1    3    3    0    0  0.21857361964E+02  0.48601796186E+02 -0.39085509217E+03  0.41231975691E+03  0.12000000000E+03 0.  0.
         25    1    3    3    0    0 -0.21857361964E+02 -0.48601796186E+02 -0.19793703530E+03  0.23752673282E+03  0.12000000000E+03 0.  0.
<mgrwt>
<rscale>  0 0.27499871E+03</rscale>
<asrwt>0</asrwt>
<pdfrwt beam="1">  1        2 0.46964893E-02 0.27499871E+03</pdfrwt>
<pdfrwt beam="2">  1       -2 0.95279895E-01 0.27499871E+03</pdfrwt>
<totfact> 0.16377789E+03</totfact>
</mgrwt>
</event>
<event>
 5    1  0.1139158E+001  0.2743804E+03  0.7818608E-02  0.1098798E+00
          2   -1    0    0  501    0  0.00000000000E+00  0.00000000000E+00  0.14110930473E+04  0.14110930473E+04  0.00000000000E+00 0.  1.
         -2   -1    0    0    0  501 -0.00000000000E+00 -0.00000000000E+00 -0.13337990015E+02  0.13337990015E+02  0.00000000000E+00 0.  1.
         35    2    1    2    0    0  0.00000000000E+00  0.00000000000E+00  0.13977550573E+04  0.14244310373E+04  0.27438035626E+03 0.  0.
         25    1    3    3    0    0 -0.49002481911E+02  0.19974263782E+02  0.90788923615E+03  0.91731296708E+03  0.12000000000E+03 0.  0.
         25    1    3    3    0    0  0.49002481911E+02 -0.19974263782E+02  0.48986582114E+03  0.50711807025E+03  0.12000000000E+03 0.  0.
<mgrwt>
<rscale>  0 0.27438036E+03</rscale>
<asrwt>0</asrwt>
<pdfrwt beam="1">  1        2 0.21709112E+00 0.27438036E+03</pdfrwt>
<pdfrwt beam="2">  1       -2 0.20519996E-02 0.27438036E+03</pdfrwt>
<totfact> 0.11340542E+04</totfact>
</mgrwt>
</event>
<event>
 5    1  0.1139158E+001  0.2739259E+03  0.7818608E-02  0.1099054E+00
          2   -1    0    0  501    0  0.00000000000E+00  0.00000000000E+00  0.10084545196E+04  0.10084545196E+04  0.00000000000E+00 0.  1.
         -2   -1    0    0    0  501 -0.00000000000E+00 -0.00000000000E+00 -0.18601577344E+02  0.18601577344E+02  0.00000000000E+00 0.  1.
         35    2    1    2    0    0  0.00000000000E+00  0.00000000000E+00  0.98985294225E+03  0.10270560969E+04  0.27392586401E+03 0.  0.
         25    1    3    3    0    0 -0.51892562243E+02  0.28554872229E+02  0.38557353425E+03  0.40813621385E+03  0.12000000000E+03 0.  0.
         25    1    3    3    0    0  0.51892562243E+02 -0.28554872229E+02  0.60427940800E+03  0.61891988309E+03  0.12000000000E+03 0.  0.
<mgrwt>
<rscale>  0 0.27392586E+03</rscale>
<asrwt>0</asrwt>
<pdfrwt beam="1">  1        2 0.15514681E+00 0.27392586E+03</pdfrwt>
<pdfrwt beam="2">  1       -2 0.28617819E-02 0.27392586E+03</pdfrwt>
<totfact> 0.11759636E+04</totfact>
</mgrwt>
</event>
<event>
 5    1  0.1139158E+001  0.2747315E+03  0.7818608E-02  0.1098602E+00
          1   -1    0    0  501    0  0.00000000000E+00  0.00000000000E+00  0.34485836102E+03  0.34485836102E+03  0.00000000000E+00 0. -1.
         -1   -1    0    0    0  501 -0.00000000000E+00 -0.00000000000E+00 -0.54716215280E+02  0.54716215280E+02  0.00000000000E+00 0. -1.
         35    2    1    2    0    0  0.00000000000E+00  0.00000000000E+00  0.29014214574E+03  0.39957457630E+03  0.27473146396E+03 0.  0.
         25    1    3    3    0    0  0.67973326457E+01 -0.55333665869E+02  0.19873352559E+03  0.23875307852E+03  0.12000000000E+03 0.  0.
         25    1    3    3    0    0 -0.67973326457E+01  0.55333665869E+02  0.91408620146E+02  0.16082149778E+03  0.12000000000E+03 0.  0.
<mgrwt>
<rscale>  0 0.27473146E+03</rscale>
<asrwt>0</asrwt>
<pdfrwt beam="1">  1        1 0.53055131E-01 0.27473146E+03</pdfrwt>
<pdfrwt beam="2">  1       -1 0.84178795E-02 0.27473146E+03</pdfrwt>
<totfact> 0.58018975E+03</totfact>
</mgrwt>
</event>
<event>
 5    1  0.1139158E+001  0.2758449E+03  0.7818608E-02  0.1097980E+00
         -2   -1    0    0    0  501 -0.00000000000E+00  0.00000000000E+00  0.23404772609E+02  0.23404772609E+02  0.00000000000E+00 0. -1.
          2   -1    0    0  501    0  0.00000000000E+00 -0.00000000000E+00 -0.81276606269E+03  0.81276606269E+03  0.00000000000E+00 0. -1.
         35    2    1    2    0    0  0.00000000000E+00  0.00000000000E+00 -0.78936129008E+03  0.83617083530E+03  0.27584491934E+03 0.  0.
         25    1    3    3    0    0 -0.13832798343E+02  0.11314666518E+01 -0.59643867498E+03  0.60854886372E+03  0.12000000000E+03 0.  0.
         25    1    3    3    0    0  0.13832798343E+02 -0.11314666518E+01 -0.19292261510E+03  0.22762197158E+03  0.12000000000E+03 0.  0.
<mgrwt>
<rscale>  0 0.27584492E+03</rscale>
<asrwt>0</asrwt>
<pdfrwt beam="1">  1        2 0.12504090E+00 0.27584492E+03</pdfrwt>
<pdfrwt beam="2">  1       -2 0.36007352E-02 0.27584492E+03</pdfrwt>
<totfact> 0.11159699E+04</totfact>
</mgrwt>
</event>
<event>
 5    1  0.1139158E+001  0.2748167E+03  0.7818608E-02  0.1098554E+00
         -1   -1    0    0    0  501 -0.00000000000E+00  0.00000000000E+00  0.48242463751E+02  0.48242463751E+02  0.00000000000E+00 0. -1.
          1   -1    0    0  501    0  0.00000000000E+00 -0.00000000000E+00 -0.39137832964E+03  0.39137832964E+03  0.00000000000E+00 0. -1.
         35    2    1    2    0    0  0.00000000000E+00  0.00000000000E+00 -0.34313586589E+03  0.43962079340E+03  0.27481670168E+03 0.  0.
         25    1    3    3    0    0 -0.20478953322E+02 -0.35983281620E+02 -0.87422695085E+02  0.15413277296E+03  0.12000000000E+03 0.  0.
         25    1    3    3    0    0  0.20478953322E+02  0.35983281620E+02 -0.25571317081E+03  0.28548802043E+03  0.12000000000E+03 0.  0.
<mgrwt>
<rscale>  0 0.27481670E+03</rscale>
<asrwt>0</asrwt>
<pdfrwt beam="1">  1        1 0.60212051E-01 0.27481670E+03</pdfrwt>
<pdfrwt beam="2">  1       -1 0.74219175E-02 0.27481670E+03</pdfrwt>
<totfact> 0.59855844E+03</totfact>
</mgrwt>
</event>
<event>
 5    1  0.1139158E+001  0.2748840E+03  0.7818608E-02  0.1098516E+00
          2   -1    0    0  501    0  0.00000000000E+00  0.00000000000E+00  0.21551538173E+03  0.21551538173E+03  0.00000000000E+00 0. -1.
         -2   -1    0    0    0  501 -0.00000000000E+00 -0.00000000000E+00 -0.87651770267E+02  0.87651770267E+02  0.00000000000E+00 0. -1.
         35    2    1    2    0    0  0.00000000000E+00  0.00000000000E+00  0.12786361146E+03  0.30316715199E+03  0.27488400992E+03 0.  0.
         25    1    3    3    0    0 -0.44334119057E+02  0.60354043398E+01  0.11894788862E+03  0.17478712889E+03  0.12000000000E+03 0.  0.
         25    1    3    3    0    0  0.44334119057E+02 -0.60354043398E+01  0.89157228382E+01  0.12838002310E+03  0.12000000000E+03 0.  0.
<mgrwt>
<rscale>  0 0.27488401E+03</rscale>
<asrwt>0</asrwt>
<pdfrwt beam="1">  1        2 0.33156212E-01 0.27488401E+03</pdfrwt>
<pdfrwt beam="2">  1       -2 0.13484888E-01 0.27488401E+03</pdfrwt>
<totfact> 0.63625187E+03</totfact>
</mgrwt>
</event>
<event>
 5    1  0.1139158E+001  0.2736599E+03  0.7818608E-02  0.1099203E+00
          2   -1    0    0  501    0  0.00000000000E+00  0.00000000000E+00  0.24981024647E+04  0.24981024647E+04  0.00000000000E+00 0.  1.
         -2   -1    0    0    0  501 -0.00000000000E+00 -0.00000000000E+00 -0.74946629367E+01  0.74946629367E+01  0.00000000000E+00 0.  1.
         35    2    1    2    0    0  0.00000000000E+00  0.00000000000E+00  0.24906078017E+04  0.25055971276E+04  0.27365990539E+03 0.  0.
         25    1    3    3    0    0 -0.29238281901E+02 -0.58323422430E+02  0.13196512334E+04  0.13267011256E+04  0.12000000000E+03 0.  0.
         25    1    3    3    0    0  0.29238281901E+02  0.58323422430E+02  0.11709565683E+04  0.11788960020E+04  0.12000000000E+03 0.  0.
<mgrwt>
<rscale>  0 0.27365991E+03</rscale>
<asrwt>0</asrwt>
<pdfrwt beam="1">  1        2 0.38432279E+00 0.27365991E+03</pdfrwt>
<pdfrwt beam="2">  1       -2 0.11530271E-02 0.27365991E+03</pdfrwt>
<totfact> 0.69668777E+03</totfact>
</mgrwt>
</event>
<event>
 5    1  0.1139158E+001  0.2738569E+03  0.7818608E-02  0.1099092E+00
         -2   -1    0    0    0  501 -0.00000000000E+00  0.00000000000E+00  0.62887484023E+03  0.62887484023E+03  0.00000000000E+00 0. -1.
          2   -1    0    0  501    0  0.00000000000E+00 -0.00000000000E+00 -0.29814203465E+02  0.29814203465E+02  0.00000000000E+00 0. -1.
         35    2    1    2    0    0  0.00000000000E+00  0.00000000000E+00  0.59906063677E+03  0.65868904370E+03  0.27385691476E+03 0.  0.
         25    1    3    3    0    0 -0.10906391463E+02  0.25675287743E+02  0.15579423684E+03  0.19862027592E+03  0.12000000000E+03 0.  0.
         25    1    3    3    0    0  0.10906391463E+02 -0.25675287743E+02  0.44326639993E+03  0.46006876778E+03  0.12000000000E+03 0.  0.
<mgrwt>
<rscale>  0 0.27385691E+03</rscale>
<asrwt>0</asrwt>
<pdfrwt beam="1">  1        2 0.45868010E-02 0.27385691E+03</pdfrwt>
<pdfrwt beam="2">  1       -2 0.96749966E-01 0.27385691E+03</pdfrwt>
<totfact> 0.16314121E+03</totfact>
</mgrwt>
</event>
<event>
 5    1  0.1139158E+001  0.2753037E+03  0.7818608E-02  0.1098282E+00
          2   -1    0    0  501    0  0.00000000000E+00  0.00000000000E+00  0.94521245315E+03  0.94521245315E+03  0.00000000000E+00 0.  1.
         -2   -1    0    0    0  501 -0.00000000000E+00 -0.00000000000E+00 -0.20046318088E+02  0.20046318088E+02  0.00000000000E+00 0.  1.
         35    2    1    2    0    0  0.00000000000E+00  0.00000000000E+00  0.92516613507E+03  0.96525877124E+03  0.27530368321E+03 0.  0.
         25    1    3    3    0    0 -0.56838170901E+01 -0.63286092974E+00  0.22698259547E+03  0.25681472882E+03  0.12000000000E+03 0.  0.
         25    1    3    3    0    0  0.56838170901E+01  0.63286092974E+00  0.69818353959E+03  0.70844404242E+03  0.12000000000E+03 0.  0.
<mgrwt>
<rscale>  0 0.27530368E+03</rscale>
<asrwt>0</asrwt>
<pdfrwt beam="1">  1        2 0.14541727E+00 0.27530368E+03</pdfrwt>
<pdfrwt beam="2">  1       -2 0.30840497E-02 0.27530368E+03</pdfrwt>
<totfact> 0.11516442E+04</totfact>
</mgrwt>
</event>
<event>
 5    1  0.1139158E+001  0.2733592E+03  0.7818608E-02  0.1099372E+00
          1   -1    0    0  501    0  0.00000000000E+00  0.00000000000E+00  0.50702289094E+03  0.50702289094E+03  0.00000000000E+00 0. -1.
         -1   -1    0    0    0  501 -0.00000000000E+00 -0.00000000000E+00 -0.36845119478E+02  0.36845119478E+02  0.00000000000E+00 0. -1.
         35    2    1    2    0    0  0.00000000000E+00  0.00000000000E+00  0.47017777146E+03  0.54386801042E+03  0.27335924345E+03 0.  0.
         25    1    3    3    0    0  0.27654296502E+02 -0.58776724104E+02  0.25073653866E+03  0.28546151270E+03  0.12000000000E+03 0.  0.
         25    1    3    3    0    0 -0.27654296502E+02  0.58776724104E+02  0.21944123280E+03  0.25840649772E+03  0.12000000000E+03 0.  0.
<mgrwt>
<rscale>  0 0.27335924E+03</rscale>
<asrwt>0</asrwt>
<pdfrwt beam="1">  1        1 0.78003517E-01 0.27335924E+03</pdfrwt>
<pdfrwt beam="2">  1       -1 0.56684803E-02 0.27335924E+03</pdfrwt>
<totfact> 0.64218711E+03</totfact>
</mgrwt>
</event>
<event>
 5    1  0.1139158E+001  0.2751551E+03  0.7818608E-02  0.1098365E+00
          2   -1    0    0  501    0  0.00000000000E+00  0.00000000000E+00  0.40724068543E+02  0.40724068543E+02  0.00000000000E+00 0. -1.
         -2   -1    0    0    0  501 -0.00000000000E+00 -0.00000000000E+00 -0.46477624527E+03  0.46477624527E+03  0.00000000000E+00 0. -1.
         35    2    1    2    0    0  0.00000000000E+00  0.00000000000E+00 -0.42405217673E+03  0.50550031381E+03  0.27515508114E+03 0.  0.
         25    1    3    3    0    0  0.62428470209E+02  0.24922781723E+02 -0.21757437189E+03  0.25740447984E+03  0.12000000000E+03 0.  0.
         25    1    3    3    0    0 -0.62428470209E+02 -0.24922781723E+02 -0.20647780484E+03  0.24809583397E+03  0.12000000000E+03 0.  0.
<mgrwt>
<rscale>  0 0.27515508E+03</rscale>
<asrwt>0</asrwt>
<pdfrwt beam="1">  1        2 0.62652411E-02 0.27515508E+03</pdfrwt>
<pdfrwt beam="2">  1       -2 0.71504040E-01 0.27515508E+03</pdfrwt>
<totfact> 0.21218147E+03</totfact>
</mgrwt>
</event>
<event>
 5    1  0.1139158E+001  0.2760310E+03  0.7818608E-02  0.1097877E+00
          4   -1    0    0  501    0  0.00000000000E+00  0.00000000000E+00  0.24509578531E+02  0.24509578531E+02  0.00000000000E+00 0.  1.
         -4   -1    0    0    0  501 -0.00000000000E+00 -0.00000000000E+00 -0.77717703703E+03  0.77717703703E+03  0.00000000000E+00 0.  1.
         35    2    1    2    0    0  0.00000000000E+00  0.00000000000E+00 -0.75266745850E+03  0.80168661556E+03  0.27603102450E+03 0.  0.
         25    1    3    3    0    0  0.40300504918E+02  0.51601397287E+02 -0.32111722840E+03  0.34900302187E+03  0.12000000000E+03 0.  0.
         25    1    3    3    0    0 -0.40300504918E+02 -0.51601397287E+02 -0.43155023010E+03  0.45268359369E+03  0.12000000000E+03 0.  0.
<mgrwt>
<rscale>  0 0.27603102E+03</rscale>
<asrwt>0</asrwt>
<pdfrwt beam="1">  1        4 0.37707049E-02 0.27603102E+03</pdfrwt>
<pdfrwt beam="2">  1       -4 0.11956568E+00 0.27603102E+03</pdfrwt>
<totfact> 0.39259628E+02</totfact>
</mgrwt>
</event>
<event>
 5    1  0.1139158E+001  0.2753528E+03  0.7818608E-02  0.1098255E+00
          1   -1    0    0  501    0  0.00000000000E+00  0.00000000000E+00  0.13028398002E+04  0.13028398002E+04  0.00000000000E+00 0. -1.
         -1   -1    0    0    0  501 -0.00000000000E+00 -0.00000000000E+00 -0.14548823047E+02  0.14548823047E+02  0.00000000000E+00 0. -1.
         35    2    1    2    0    0  0.00000000000E+00  0.00000000000E+00  0.12882909772E+04  0.13173886233E+04  0.27535276074E+03 0.  0.
         25    1    3    3    0    0  0.35495853846E+02  0.56000073568E+02  0.70444024912E+03  0.71765731966E+03  0.12000000000E+03 0.  0.
         25    1    3    3    0    0 -0.35495853846E+02 -0.56000073568E+02  0.58385072808E+03  0.59973130364E+03  0.12000000000E+03 0.  0.
<mgrwt>
<rscale>  0 0.27535276E+03</rscale>
<asrwt>0</asrwt>
<pdfrwt beam="1">  1        1 0.20043680E+00 0.27535276E+03</pdfrwt>
<pdfrwt beam="2">  1       -1 0.22382815E-02 0.27535276E+03</pdfrwt>
<totfact> 0.56468914E+03</totfact>
</mgrwt>
</event>
<event>
 5    1  0.1139158E+001  0.2825863E+03  0.7818608E-02  0.1094285E+00
          1   -1    0    0  501    0  0.00000000000E+00  0.00000000000E+00  0.26481950989E+03  0.26481950989E+03  0.00000000000E+00 0. -1.
         -1   -1    0    0    0  501 -0.00000000000E+00 -0.00000000000E+00 -0.75386252846E+02  0.75386252846E+02  0.00000000000E+00 0. -1.
         35    2    1    2    0    0  0.00000000000E+00  0.00000000000E+00  0.18943325704E+03  0.34020576273E+03  0.28258627377E+03 0.  0.
         25    1    3    3    0    0  0.21389955457E+02 -0.26426096388E+02  0.17464584789E+03  0.21460904210E+03  0.12000000000E+03 0.  0.
         25    1    3    3    0    0 -0.21389955457E+02  0.26426096388E+02  0.14787409150E+02  0.12559672063E+03  0.12000000000E+03 0.  0.
<mgrwt>
<rscale>  0 0.28258627E+03</rscale>
<asrwt>0</asrwt>
<pdfrwt beam="1">  1        1 0.40741462E-01 0.28258627E+03</pdfrwt>
<pdfrwt beam="2">  1       -1 0.11597885E-01 0.28258627E+03</pdfrwt>
<totfact> 0.49356735E+03</totfact>
</mgrwt>
</event>
<event>
 5    1  0.1139158E+001  0.2751701E+03  0.7818608E-02  0.1098357E+00
         -2   -1    0    0    0  501 -0.00000000000E+00  0.00000000000E+00  0.10160398006E+03  0.10160398006E+03  0.00000000000E+00 0.  1.
          2   -1    0    0  501    0  0.00000000000E+00 -0.00000000000E+00 -0.18630809562E+03  0.18630809562E+03  0.00000000000E+00 0.  1.
         35    2    1    2    0    0  0.00000000000E+00  0.00000000000E+00 -0.84704115560E+02  0.28791207568E+03  0.27517008582E+03 0.  0.
         25    1    3    3    0    0 -0.34905339859E+02  0.57164421172E+02 -0.35451971339E+02  0.14192602323E+03  0.12000000000E+03 0.  0.
         25    1    3    3    0    0  0.34905339859E+02 -0.57164421172E+02 -0.49252144222E+02  0.14598605245E+03  0.12000000000E+03 0.  0.
<mgrwt>
<rscale>  0 0.27517009E+03</rscale>
<asrwt>0</asrwt>
<pdfrwt beam="1">  1        2 0.28662783E-01 0.27517009E+03</pdfrwt>
<pdfrwt beam="2">  1       -2 0.15631382E-01 0.27517009E+03</pdfrwt>
<totfact> 0.58519265E+03</totfact>
</mgrwt>
</event>
<event>
 5    1  0.1139158E+001  0.2794667E+03  0.7818608E-02  0.1095981E+00
         -3   -1    0    0    0  501 -0.00000000000E+00  0.00000000000E+00  0.13066367755E+03  0.13066367755E+03  0.00000000000E+00 0. -1.
          3   -1    0    0  501    0  0.00000000000E+00 -0.00000000000E+00 -0.14943259663E+03  0.14943259663E+03  0.00000000000E+00 0. -1.
         35    2    1    2    0    0  0.00000000000E+00  0.00000000000E+00 -0.18768919082E+02  0.28009627417E+03  0.27946672518E+03 0.  0.
         25    1    3    3    0    0  0.35093540853E+02  0.55927776264E+02 -0.37122422231E+02  0.14190682506E+03  0.12000000000E+03 0.  0.
         25    1    3    3    0    0 -0.35093540853E+02 -0.55927776264E+02  0.18353503149E+02  0.13818944911E+03  0.12000000000E+03 0.  0.
<mgrwt>
<rscale>  0 0.27946673E+03</rscale>
<asrwt>0</asrwt>
<pdfrwt beam="1">  1        3 0.22989630E-01 0.27946673E+03</pdfrwt>
<pdfrwt beam="2">  1       -3 0.20102104E-01 0.27946673E+03</pdfrwt>
<totfact> 0.99087731E+02</totfact>
</mgrwt>
</event>
<event>
 5    1  0.1139158E+001  0.2745354E+03  0.7818608E-02  0.1098712E+00
          2   -1    0    0  501    0  0.00000000000E+00  0.00000000000E+00  0.14165156738E+04  0.14165156738E+04  0.00000000000E+00 0. -1.
         -2   -1    0    0    0  501 -0.00000000000E+00 -0.00000000000E+00 -0.13301948567E+02  0.13301948567E+02  0.00000000000E+00 0. -1.
         35    2    1    2    0    0  0.00000000000E+00  0.00000000000E+00  0.14032137252E+04  0.14298176224E+04  0.27453537941E+03 0.  0.
         25    1    3    3    0    0  0.22970186387E+02 -0.44929348906E+02  0.47482002562E+03  0.49234168276E+03  0.12000000000E+03 0.  0.
         25    1    3    3    0    0 -0.22970186387E+02  0.44929348906E+02  0.92839369960E+03  0.93747593959E+03  0.12000000000E+03 0.  0.
<mgrwt>
<rscale>  0 0.27453538E+03</rscale>
<asrwt>0</asrwt>
<pdfrwt beam="1">  1        2 0.21792537E+00 0.27453538E+03</pdfrwt>
<pdfrwt beam="2">  1       -2 0.20464547E-02 0.27453538E+03</pdfrwt>
<totfact> 0.11309193E+04</totfact>
</mgrwt>
</event>
<event>
 5    1  0.1139158E+001  0.2758778E+03  0.7818608E-02  0.1097962E+00
          2   -1    0    0  501    0  0.00000000000E+00  0.00000000000E+00  0.34038632118E+03  0.34038632118E+03  0.00000000000E+00 0. -1.
         -2   -1    0    0    0  501 -0.00000000000E+00 -0.00000000000E+00 -0.55898665331E+02  0.55898665331E+02  0.00000000000E+00 0. -1.
         35    2    1    2    0    0  0.00000000000E+00  0.00000000000E+00  0.28448765585E+03  0.39628498652E+03  0.27587780665E+03 0.  0.
         25    1    3    3    0    0  0.65216264747E+02 -0.18004442286E+02  0.15238276375E+03  0.20542109876E+03  0.12000000000E+03 0.  0.
         25    1    3    3    0    0 -0.65216264747E+02  0.18004442286E+02  0.13210489211E+03  0.19086388775E+03  0.12000000000E+03 0.  0.
<mgrwt>
<rscale>  0 0.27587781E+03</rscale>
<asrwt>0</asrwt>
<pdfrwt beam="1">  1        2 0.52367125E-01 0.27587781E+03</pdfrwt>
<pdfrwt beam="2">  1       -2 0.85997949E-02 0.27587781E+03</pdfrwt>
<totfact> 0.79812469E+03</totfact>
</mgrwt>
</event>
<event>
 5    1  0.1139158E+001  0.2748840E+03  0.7818608E-02  0.1098516E+00
          2   -1    0    0  501    0  0.00000000000E+00  0.00000000000E+00  0.10020383618E+03  0.10020383618E+03  0.00000000000E+00 0.  1.
         -2   -1    0    0    0  501 -0.00000000000E+00 -0.00000000000E+00 -0.18851880467E+03  0.18851880467E+03  0.00000000000E+00 0.  1.
         35    2    1    2    0    0  0.00000000000E+00  0.00000000000E+00 -0.88314968485E+02  0.28872264085E+03  0.27488402951E+03 0.  0.
         25    1    3    3    0    0  0.63493350336E+02 -0.15338499515E+02 -0.59864678430E+02  0.14916586348E+03  0.12000000000E+03 0.  0.
         25    1    3    3    0    0 -0.63493350336E+02  0.15338499515E+02 -0.28450290055E+02  0.13955677737E+03  0.12000000000E+03 0.  0.
<mgrwt>
<rscale>  0 0.27488403E+03</rscale>
<asrwt>0</asrwt>
<pdfrwt beam="1">  1        2 0.15415975E-01 0.27488403E+03</pdfrwt>
<pdfrwt beam="2">  1       -2 0.29002893E-01 0.27488403E+03</pdfrwt>
<totfact> 0.40794102E+03</totfact>
</mgrwt>
</event>
<event>
 5    1  0.1139158E+001  0.2742515E+03  0.7818608E-02  0.1098871E+00
          2   -1    0    0  501    0  0.00000000000E+00  0.00000000000E+00  0.84603353853E+03  0.84603353853E+03  0.00000000000E+00 0. -1.
         -2   -1    0    0    0  501 -0.00000000000E+00 -0.00000000000E+00 -0.22225446652E+02  0.22225446652E+02  0.00000000000E+00 0. -1.
         35    2    1    2    0    0  0.00000000000E+00  0.00000000000E+00  0.82380809188E+03  0.86825898518E+03  0.27425151432E+03 0.  0.
         25    1    3    3    0    0  0.89619787401E+01 -0.60533695624E+02  0.49316580994E+03  0.51123102553E+03  0.12000000000E+03 0.  0.
         25    1    3    3    0    0 -0.89619787401E+01  0.60533695624E+02  0.33064228193E+03  0.35702795965E+03  0.12000000000E+03 0.  0.
<mgrwt>
<rscale>  0 0.27425151E+03</rscale>
<asrwt>0</asrwt>
<pdfrwt beam="1">  1        2 0.13015898E+00 0.27425151E+03</pdfrwt>
<pdfrwt beam="2">  1       -2 0.34193001E-02 0.27425151E+03</pdfrwt>
<totfact> 0.11446324E+04</totfact>
</mgrwt>
</event>
<event>
 5    1  0.1139158E+001  0.2751481E+03  0.7818608E-02  0.1098369E+00
          2   -1    0    0  501    0  0.00000000000E+00  0.00000000000E+00  0.13344369253E+04  0.13344369253E+04  0.00000000000E+00 0.  1.
         -2   -1    0    0    0  501 -0.00000000000E+00 -0.00000000000E+00 -0.14183225618E+02  0.14183225618E+02  0.00000000000E+00 0.  1.
         35    2    1    2    0    0  0.00000000000E+00  0.00000000000E+00  0.13202536997E+04  0.13486201510E+04  0.27514810547E+03 0.  0.
         25    1    3    3    0    0  0.63707183111E+02  0.50631686841E+01  0.76321777384E+03  0.77523261746E+03  0.12000000000E+03 0.  0.
         25    1    3    3    0    0 -0.63707183111E+02 -0.50631686841E+01  0.55703592589E+03  0.57338753351E+03  0.12000000000E+03 0.  0.
<mgrwt>
<rscale>  0 0.27514811E+03</rscale>
<asrwt>0</asrwt>
<pdfrwt beam="1">  1        2 0.20529789E+00 0.27514811E+03</pdfrwt>
<pdfrwt beam="2">  1       -2 0.21820358E-02 0.27514811E+03</pdfrwt>
<totfact> 0.11407219E+04</totfact>
</mgrwt>
</event>
<event>
 5    1  0.1139158E+001  0.2774784E+03  0.7818608E-02  0.1097074E+00
         -2   -1    0    0    0  501 -0.00000000000E+00  0.00000000000E+00  0.54828508815E+02  0.54828508815E+02  0.00000000000E+00 0. -1.
          2   -1    0    0  501    0  0.00000000000E+00 -0.00000000000E+00 -0.35106868219E+03  0.35106868219E+03  0.00000000000E+00 0. -1.
         35    2    1    2    0    0  0.00000000000E+00  0.00000000000E+00 -0.29624017338E+03  0.40589719101E+03  0.27747844843E+03 0.  0.
         25    1    3    3    0    0  0.67329703211E+02 -0.14500517657E+01 -0.17400724142E+03  0.22184208720E+03  0.12000000000E+03 0.  0.
         25    1    3    3    0    0 -0.67329703211E+02  0.14500517657E+01 -0.12223293196E+03  0.18405510381E+03  0.12000000000E+03 0.  0.
<mgrwt>
<rscale>  0 0.27747845E+03</rscale>
<asrwt>0</asrwt>
<pdfrwt beam="1">  1        2 0.54010570E-01 0.27747845E+03</pdfrwt>
<pdfrwt beam="2">  1       -2 0.84351547E-02 0.27747845E+03</pdfrwt>
<totfact> 0.79590547E+03</totfact>
</mgrwt>
</event>
<event>
 5    1  0.1139158E+001  0.2750892E+03  0.7818608E-02  0.1098402E+00
          1   -1    0    0  501    0  0.00000000000E+00  0.00000000000E+00  0.44049214748E+03  0.44049214748E+03  0.00000000000E+00 0. -1.
         -1   -1    0    0    0  501 -0.00000000000E+00 -0.00000000000E+00 -0.42948579637E+02  0.42948579637E+02  0.00000000000E+00 0. -1.
         35    2    1    2    0    0  0.00000000000E+00  0.00000000000E+00  0.39754356785E+03  0.48344072712E+03  0.27508916428E+03 0.  0.
         25    1    3    3    0    0 -0.49468524291E+02  0.38494014683E+01  0.11907507866E+03  0.17618407177E+03  0.12000000000E+03 0.  0.
         25    1    3    3    0    0  0.49468524291E+02 -0.38494014683E+01  0.27846848919E+03  0.30725665535E+03  0.12000000000E+03 0.  0.
<mgrwt>
<rscale>  0 0.27508916E+03</rscale>
<asrwt>0</asrwt>
<pdfrwt beam="1">  1        1 0.67768020E-01 0.27508916E+03</pdfrwt>
<pdfrwt beam="2">  1       -1 0.66074741E-02 0.27508916E+03</pdfrwt>
<totfact> 0.61317387E+03</totfact>
</mgrwt>
</event>
<event>
 5    1  0.1139158E+001  0.2757549E+03  0.7818608E-02  0.1098030E+00
         -1   -1    0    0    0  501 -0.00000000000E+00  0.00000000000E+00  0.11989424158E+03  0.11989424158E+03  0.00000000000E+00 0.  1.
          1   -1    0    0  501    0  0.00000000000E+00 -0.00000000000E+00 -0.15855795961E+03  0.15855795961E+03  0.00000000000E+00 0.  1.
         35    2    1    2    0    0  0.00000000000E+00  0.00000000000E+00 -0.38663718038E+02  0.27845220119E+03  0.27575486443E+03 0.  0.
         25    1    3    3    0    0 -0.58572657818E+02 -0.33890906720E+02 -0.24939240378E+02  0.14000469818E+03  0.12000000000E+03 0.  0.
         25    1    3    3    0    0  0.58572657818E+02  0.33890906720E+02 -0.13724477660E+02  0.13844750301E+03  0.12000000000E+03 0.  0.
<mgrwt>
<rscale>  0 0.27575486E+03</rscale>
<asrwt>0</asrwt>
<pdfrwt beam="1">  1        1 0.24393532E-01 0.27575486E+03</pdfrwt>
<pdfrwt beam="2">  1       -1 0.18445268E-01 0.27575486E+03</pdfrwt>
<totfact> 0.45160144E+03</totfact>
</mgrwt>
</event>
<event>
 5    1  0.1139158E+001  0.2749529E+03  0.7818608E-02  0.1098478E+00
         -2   -1    0    0    0  501 -0.00000000000E+00  0.00000000000E+00  0.13342204096E+03  0.13342204096E+03  0.00000000000E+00 0. -1.
          2   -1    0    0  501    0  0.00000000000E+00 -0.00000000000E+00 -0.14165410048E+03  0.14165410048E+03  0.00000000000E+00 0. -1.
         35    2    1    2    0    0  0.00000000000E+00  0.00000000000E+00 -0.82320595184E+01  0.27507614144E+03  0.27495293559E+03 0.  0.
         25    1    3    3    0    0 -0.89900632313E+01 -0.15680009710E+02 -0.68744475543E+02  0.13947217235E+03  0.12000000000E+03 0.  0.
         25    1    3    3    0    0  0.89900632313E+01  0.15680009710E+02  0.60512416025E+02  0.13560396910E+03  0.12000000000E+03 0.  0.
<mgrwt>
<rscale>  0 0.27495294E+03</rscale>
<asrwt>0</asrwt>
<pdfrwt beam="1">  1        2 0.21792939E-01 0.27495294E+03</pdfrwt>
<pdfrwt beam="2">  1       -2 0.20526468E-01 0.27495294E+03</pdfrwt>
<totfact> 0.50199390E+03</totfact>
</mgrwt>
</event>
<event>
 5    1  0.1139158E+001  0.2756056E+03  0.7818608E-02  0.1098114E+00
          1   -1    0    0  501    0  0.00000000000E+00  0.00000000000E+00  0.15781219112E+04  0.15781219112E+04  0.00000000000E+00 0.  1.
         -1   -1    0    0    0  501 -0.00000000000E+00 -0.00000000000E+00 -0.12033044862E+02  0.12033044862E+02  0.00000000000E+00 0.  1.
         35    2    1    2    0    0  0.00000000000E+00  0.00000000000E+00  0.15660888663E+04  0.15901549561E+04  0.27560560049E+03 0.  0.
         25    1    3    3    0    0 -0.60473937964E+02 -0.22539303801E+02  0.90191856947E+03  0.91215252197E+03  0.12000000000E+03 0.  0.
         25    1    3    3    0    0  0.60473937964E+02  0.22539303801E+02  0.66417029687E+03  0.67800243409E+03  0.12000000000E+03 0.  0.
<mgrwt>
<rscale>  0 0.27560560E+03</rscale>
<asrwt>0</asrwt>
<pdfrwt beam="1">  1        1 0.24278782E+00 0.27560560E+03</pdfrwt>
<pdfrwt beam="2">  1       -1 0.18512389E-02 0.27560560E+03</pdfrwt>
<totfact> 0.48789329E+03</totfact>
</mgrwt>
</event>
<event>
 5    1  0.1139158E+001  0.2750865E+03  0.7818608E-02  0.1098403E+00
          2   -1    0    0  501    0  0.00000000000E+00  0.00000000000E+00  0.30682418385E+03  0.30682418385E+03  0.00000000000E+00 0. -1.
         -2   -1    0    0    0  501 -0.00000000000E+00 -0.00000000000E+00 -0.61657934676E+02  0.61657934676E+02  0.00000000000E+00 0. -1.
         35    2    1    2    0    0  0.00000000000E+00  0.00000000000E+00  0.24516624917E+03  0.36848211852E+03  0.27508649901E+03 0.  0.
         25    1    3    3    0    0 -0.45251898455E+02  0.30670707709E+01  0.56131848840E+02  0.14002830318E+03  0.12000000000E+03 0.  0.
         25    1    3    3    0    0  0.45251898455E+02 -0.30670707709E+01  0.18903440033E+03  0.22845381535E+03  0.12000000000E+03 0.  0.
<mgrwt>
<rscale>  0 0.27508650E+03</rscale>
<asrwt>0</asrwt>
<pdfrwt beam="1">  1        2 0.47203720E-01 0.27508650E+03</pdfrwt>
<pdfrwt beam="2">  1       -2 0.94858363E-02 0.27508650E+03</pdfrwt>
<totfact> 0.76457132E+03</totfact>
</mgrwt>
</event>
<event>
 5    1  0.1139158E+001  0.2759314E+03  0.7818608E-02  0.1097932E+00
         -2   -1    0    0    0  501 -0.00000000000E+00  0.00000000000E+00  0.27950297736E+02  0.27950297736E+02  0.00000000000E+00 0. -1.
          2   -1    0    0  501    0  0.00000000000E+00 -0.00000000000E+00 -0.68101361025E+03  0.68101361025E+03  0.00000000000E+00 0. -1.
         35    2    1    2    0    0  0.00000000000E+00  0.00000000000E+00 -0.65306331251E+03  0.70896390798E+03  0.27593139124E+03 0.  0.
         25    1    3    3    0    0 -0.35672198427E+02 -0.53100848224E+02 -0.38636644577E+03  0.40959887236E+03  0.12000000000E+03 0.  0.
         25    1    3    3    0    0  0.35672198427E+02  0.53100848224E+02 -0.26669686674E+03  0.29936503562E+03  0.12000000000E+03 0.  0.
<mgrwt>
<rscale>  0 0.27593139E+03</rscale>
<asrwt>0</asrwt>
<pdfrwt beam="1">  1        2 0.10477133E+00 0.27593139E+03</pdfrwt>
<pdfrwt beam="2">  1       -2 0.43000457E-02 0.27593139E+03</pdfrwt>
<totfact> 0.10641824E+04</totfact>
</mgrwt>
</event>
<event>
 5    1  0.1139158E+001  0.2746842E+03  0.7818608E-02  0.1098628E+00
          2   -1    0    0  501    0  0.00000000000E+00  0.00000000000E+00  0.60941842816E+03  0.60941842816E+03  0.00000000000E+00 0.  1.
         -2   -1    0    0    0  501 -0.00000000000E+00 -0.00000000000E+00 -0.30952214183E+02  0.30952214183E+02  0.00000000000E+00 0.  1.
         35    2    1    2    0    0  0.00000000000E+00  0.00000000000E+00  0.57846621398E+03  0.64037064235E+03  0.27468418022E+03 0.  0.
         25    1    3    3    0    0  0.11219066317E+01  0.55453864089E+02  0.37603944541E+03  0.39860011819E+03  0.12000000000E+03 0.  0.
         25    1    3    3    0    0 -0.11219066317E+01 -0.55453864089E+02  0.20242676857E+03  0.24177052415E+03  0.12000000000E+03 0.  0.
<mgrwt>
<rscale>  0 0.27468418E+03</rscale>
<asrwt>0</asrwt>
<pdfrwt beam="1">  1        2 0.93756672E-01 0.27468418E+03</pdfrwt>
<pdfrwt beam="2">  1       -2 0.47618796E-02 0.27468418E+03</pdfrwt>
<totfact> 0.10400257E+04</totfact>
</mgrwt>
</event>
<event>
 5    1  0.1139158E+001  0.2758909E+03  0.7818608E-02  0.1097955E+00
         -2   -1    0    0    0  501 -0.00000000000E+00  0.00000000000E+00  0.80686225431E+01  0.80686225431E+01  0.00000000000E+00 0. -1.
          2   -1    0    0  501    0  0.00000000000E+00 -0.00000000000E+00 -0.23583883974E+04  0.23583883974E+04  0.00000000000E+00 0. -1.
         35    2    1    2    0    0  0.00000000000E+00  0.00000000000E+00 -0.23503197749E+04  0.23664570199E+04  0.27589088994E+03 0.  0.
         25    1    3    3    0    0  0.36931151481E+02 -0.48121935056E+02 -0.91087855996E+03  0.92074935872E+03  0.12000000000E+03 0.  0.
         25    1    3    3    0    0 -0.36931151481E+02  0.48121935056E+02 -0.14394412149E+04  0.14457076612E+04  0.12000000000E+03 0.  0.
<mgrwt>
<rscale>  0 0.27589089E+03</rscale>
<asrwt>0</asrwt>
<pdfrwt beam="1">  1        2 0.36282938E+00 0.27589089E+03</pdfrwt>
<pdfrwt beam="2">  1       -2 0.12413252E-02 0.27589089E+03</pdfrwt>
<totfact> 0.74520175E+03</totfact>
</mgrwt>
</event>
<event>
 5    1  0.1139158E+001  0.2743551E+03  0.7818608E-02  0.1098813E+00
         -4   -1    0    0    0  501 -0.00000000000E+00  0.00000000000E+00  0.19808774199E+02  0.19808774199E+02  0.00000000000E+00 0.  1.
          4   -1    0    0  501    0  0.00000000000E+00 -0.00000000000E+00 -0.94996667664E+03  0.94996667664E+03  0.00000000000E+00 0.  1.
         35    2    1    2    0    0  0.00000000000E+00  0.00000000000E+00 -0.93015790244E+03  0.96977545084E+03  0.27435506479E+03 0.  0.
         25    1    3    3    0    0  0.53506226448E+02 -0.16366876879E+02 -0.33827640234E+03  0.36326535109E+03  0.12000000000E+03 0.  0.
         25    1    3    3    0    0 -0.53506226448E+02  0.16366876879E+02 -0.59188150011E+03  0.60651009975E+03  0.12000000000E+03 0.  0.
<mgrwt>
<rscale>  0 0.27435506E+03</rscale>
<asrwt>0</asrwt>
<pdfrwt beam="1">  1        4 0.14614873E+00 0.27435506E+03</pdfrwt>
<pdfrwt beam="2">  1       -4 0.30475036E-02 0.27435506E+03</pdfrwt>
<totfact> 0.33300706E+02</totfact>
</mgrwt>
</event>
<event>
 5    1  0.1139158E+001  0.2750483E+03  0.7818608E-02  0.1098425E+00
          1   -1    0    0  501    0  0.00000000000E+00  0.00000000000E+00  0.36629547333E+03  0.36629547333E+03  0.00000000000E+00 0. -1.
         -1   -1    0    0    0  501 -0.00000000000E+00 -0.00000000000E+00 -0.51632887501E+02  0.51632887501E+02  0.00000000000E+00 0. -1.
         35    2    1    2    0    0  0.00000000000E+00  0.00000000000E+00  0.31466258583E+03  0.41792836083E+03  0.27504830824E+03 0.  0.
         25    1    3    3    0    0  0.20625351940E+02 -0.40653674207E+01  0.60382743415E+02  0.13597061468E+03  0.12000000000E+03 0.  0.
         25    1    3    3    0    0 -0.20625351940E+02  0.40653674207E+01  0.25427984242E+03  0.28195774615E+03  0.12000000000E+03 0.  0.
<mgrwt>
<rscale>  0 0.27504831E+03</rscale>
<asrwt>0</asrwt>
<pdfrwt beam="1">  1        1 0.56353148E-01 0.27504831E+03</pdfrwt>
<pdfrwt beam="2">  1       -1 0.79435214E-02 0.27504831E+03</pdfrwt>
<totfact> 0.58728395E+03</totfact>
</mgrwt>
</event>
<event>
 5    1  0.1139158E+001  0.2750662E+03  0.7818608E-02  0.1098415E+00
         -3   -1    0    0    0  501 -0.00000000000E+00  0.00000000000E+00  0.77590189868E+03  0.77590189868E+03  0.00000000000E+00 0. -1.
          3   -1    0    0  501    0  0.00000000000E+00 -0.00000000000E+00 -0.24378544741E+02  0.24378544741E+02  0.00000000000E+00 0. -1.
         35    2    1    2    0    0  0.00000000000E+00  0.00000000000E+00  0.75152335394E+03  0.80028044342E+03  0.27506624040E+03 0.  0.
         25    1    3    3    0    0  0.17432352802E+02 -0.12345135311E+02  0.56112259667E+03  0.57420802657E+03  0.12000000000E+03 0.  0.
         25    1    3    3    0    0 -0.17432352802E+02  0.12345135311E+02  0.19040075727E+03  0.22607241684E+03  0.12000000000E+03 0.  0.
<mgrwt>
<rscale>  0 0.27506624E+03</rscale>
<asrwt>0</asrwt>
<pdfrwt beam="1">  1        3 0.37505459E-02 0.27506624E+03</pdfrwt>
<pdfrwt beam="2">  1       -3 0.11936950E+00 0.27506624E+03</pdfrwt>
<totfact> 0.54554228E+02</totfact>
</mgrwt>
</event>
<event>
 5    1  0.1139158E+001  0.2767865E+03  0.7818608E-02  0.1097457E+00
          2   -1    0    0  501    0  0.00000000000E+00  0.00000000000E+00  0.11917531628E+04  0.11917531628E+04  0.00000000000E+00 0.  1.
         -2   -1    0    0    0  501 -0.00000000000E+00 -0.00000000000E+00 -0.16071019571E+02  0.16071019571E+02  0.00000000000E+00 0.  1.
         35    2    1    2    0    0  0.00000000000E+00  0.00000000000E+00  0.11756821432E+04  0.12078241823E+04  0.27678647657E+03 0.  0.
         25    1    3    3    0    0  0.25359660959E+01  0.35239251105E+02  0.84616755966E+03  0.85536411835E+03  0.12000000000E+03 0.  0.
         25    1    3    3    0    0 -0.25359660959E+01 -0.35239251105E+02  0.32951458355E+03  0.35246006400E+03  0.12000000000E+03 0.  0.
<mgrwt>
<rscale>  0 0.27678648E+03</rscale>
<asrwt>0</asrwt>
<pdfrwt beam="1">  1        2 0.18334657E+00 0.27678648E+03</pdfrwt>
<pdfrwt beam="2">  1       -2 0.24724655E-02 0.27678648E+03</pdfrwt>
<totfact> 0.11398869E+04</totfact>
</mgrwt>
</event>
<event>
 5    1  0.1139158E+001  0.2752573E+03  0.7818608E-02  0.1098308E+00
         -2   -1    0    0    0  501 -0.00000000000E+00  0.00000000000E+00  0.67886386599E+03  0.67886386599E+03  0.00000000000E+00 0. -1.
          2   -1    0    0  501    0  0.00000000000E+00 -0.00000000000E+00 -0.27901981198E+02  0.27901981198E+02  0.00000000000E+00 0. -1.
         35    2    1    2    0    0  0.00000000000E+00  0.00000000000E+00  0.65096188480E+03  0.70676584719E+03  0.27525731108E+03 0.  0.
         25    1    3    3    0    0  0.52461247628E+02 -0.42270353586E+02  0.32127631002E+03  0.34951027550E+03  0.12000000000E+03 0.  0.
         25    1    3    3    0    0 -0.52461247628E+02  0.42270353586E+02  0.32968557477E+03  0.35725557170E+03  0.12000000000E+03 0.  0.
<mgrwt>
<rscale>  0 0.27525731E+03</rscale>
<asrwt>0</asrwt>
<pdfrwt beam="1">  1        2 0.42926130E-02 0.27525731E+03</pdfrwt>
<pdfrwt beam="2">  1       -2 0.10444058E+00 0.27525731E+03</pdfrwt>
<totfact> 0.14916762E+03</totfact>
</mgrwt>
</event>
<event>
 5    1  0.1139158E+001  0.2750631E+03  0.7818608E-02  0.1098416E+00
         -1   -1    0    0    0  501 -0.00000000000E+00  0.00000000000E+00  0.41344927154E+03  0.41344927154E+03  0.00000000000E+00 0.  1.
          1   -1    0    0  501    0  0.00000000000E+00 -0.00000000000E+00 -0.45749103541E+02  0.45749103541E+02  0.00000000000E+00 0.  1.
         35    2    1    2    0    0  0.00000000000E+00  0.00000000000E+00  0.36770016800E+03  0.45919837508E+03  0.27506314571E+03 0.  0.
         25    1    3    3    0    0  0.46702054041E+02  0.18954480780E+02  0.25803322731E+03  0.28900086607E+03  0.12000000000E+03 0.  0.
         25    1    3    3    0    0 -0.46702054041E+02 -0.18954480780E+02  0.10966694069E+03  0.17019750901E+03  0.12000000000E+03 0.  0.
<mgrwt>
<rscale>  0 0.27506315E+03</rscale>
<asrwt>0</asrwt>
<pdfrwt beam="1">  1        1 0.70383239E-02 0.27506315E+03</pdfrwt>
<pdfrwt beam="2">  1       -1 0.63607578E-01 0.27506315E+03</pdfrwt>
<totfact> 0.26809061E+03</totfact>
</mgrwt>
</event>
<event>
 5    1  0.1139158E+001  0.2744268E+03  0.7818608E-02  0.1098772E+00
         -4   -1    0    0    0  501 -0.00000000000E+00  0.00000000000E+00  0.34850879528E+03  0.34850879528E+03  0.00000000000E+00 0.  1.
          4   -1    0    0  501    0  0.00000000000E+00 -0.00000000000E+00 -0.54023092783E+02  0.54023092783E+02  0.00000000000E+00 0.  1.
         35    2    1    2    0    0  0.00000000000E+00  0.00000000000E+00  0.29448570250E+03  0.40253188807E+03  0.27442684259E+03 0.  0.
         25    1    3    3    0    0  0.37386597138E+02  0.47055094080E+02  0.18913261452E+03  0.23191180521E+03  0.12000000000E+03 0.  0.
         25    1    3    3    0    0 -0.37386597138E+02 -0.47055094080E+02  0.10535308799E+03  0.17062008285E+03  0.12000000000E+03 0.  0.
<mgrwt>
<rscale>  0 0.27442684E+03</rscale>
<asrwt>0</asrwt>
<pdfrwt beam="1">  1        4 0.83112453E-02 0.27442684E+03</pdfrwt>
<pdfrwt beam="2">  1       -4 0.53616736E-01 0.27442684E+03</pdfrwt>
<totfact> 0.65192783E+02</totfact>
</mgrwt>
</event>
<event>
 5    1  0.1139158E+001  0.2744967E+03  0.7818608E-02  0.1098733E+00
          2   -1    0    0  501    0  0.00000000000E+00  0.00000000000E+00  0.55828232917E+02  0.55828232917E+02  0.00000000000E+00 0. -1.
         -2   -1    0    0    0  501 -0.00000000000E+00 -0.00000000000E+00 -0.33741198871E+03  0.33741198871E+03  0.00000000000E+00 0. -1.
         35    2    1    2    0    0  0.00000000000E+00  0.00000000000E+00 -0.28158375580E+03  0.39324022163E+03  0.27449674020E+03 0.  0.
         25    1    3    3    0    0 -0.27295077801E+02  0.24012128196E+02 -0.60829551336E+02  0.13936225417E+03  0.12000000000E+03 0.  0.
         25    1    3    3    0    0  0.27295077801E+02 -0.24012128196E+02 -0.22075420446E+03  0.25387796746E+03  0.12000000000E+03 0.  0.
<mgrwt>
<rscale>  0 0.27449674E+03</rscale>
<asrwt>0</asrwt>
<pdfrwt beam="1">  1        2 0.85889591E-02 0.27449674E+03</pdfrwt>
<pdfrwt beam="2">  1       -2 0.51909536E-01 0.27449674E+03</pdfrwt>
<totfact> 0.27559699E+03</totfact>
</mgrwt>
</event>
<event>
 5    1  0.1139158E+001  0.2754425E+03  0.7818608E-02  0.1098204E+00
         -2   -1    0    0    0  501 -0.00000000000E+00  0.00000000000E+00  0.17187136201E+03  0.17187136201E+03  0.00000000000E+00 0.  1.
          2   -1    0    0  501    0  0.00000000000E+00 -0.00000000000E+00 -0.11035664722E+03  0.11035664722E+03  0.00000000000E+00 0.  1.
         35    2    1    2    0    0  0.00000000000E+00  0.00000000000E+00  0.61514714795E+02  0.28222800923E+03  0.27544253313E+03 0.  0.
         25    1    3    3    0    0  0.38037491402E+02  0.52050267432E+02  0.51531589441E+02  0.14564197816E+03  0.12000000000E+03 0.  0.
         25    1    3    3    0    0 -0.38037491402E+02 -0.52050267432E+02  0.99831253543E+01  0.13658603107E+03  0.12000000000E+03 0.  0.
<mgrwt>
<rscale>  0 0.27544253E+03</rscale>
<asrwt>0</asrwt>
<pdfrwt beam="1">  1        2 0.16977946E-01 0.27544253E+03</pdfrwt>
<pdfrwt beam="2">  1       -2 0.26441748E-01 0.27544253E+03</pdfrwt>
<totfact> 0.42990131E+03</totfact>
</mgrwt>
</event>
<event>
 5    1  0.1139158E+001  0.2770090E+03  0.7818608E-02  0.1097334E+00
         -2   -1    0    0    0  501 -0.00000000000E+00  0.00000000000E+00  0.84593235810E+02  0.84593235810E+02  0.00000000000E+00 0. -1.
          2   -1    0    0  501    0  0.00000000000E+00 -0.00000000000E+00 -0.22677341634E+03  0.22677341634E+03  0.00000000000E+00 0. -1.
         35    2    1    2    0    0  0.00000000000E+00  0.00000000000E+00 -0.14218018053E+03  0.31136665215E+03  0.27700900407E+03 0.  0.
         25    1    3    3    0    0 -0.44286260793E+02  0.19872148196E+02 -0.12646868100E+03  0.18097099890E+03  0.12000000000E+03 0.  0.
         25    1    3    3    0    0  0.44286260793E+02 -0.19872148196E+02 -0.15711499532E+02  0.13039565325E+03  0.12000000000E+03 0.  0.
<mgrwt>
<rscale>  0 0.27700900E+03</rscale>
<asrwt>0</asrwt>
<pdfrwt beam="1">  1        2 0.34888218E-01 0.27700900E+03</pdfrwt>
<pdfrwt beam="2">  1       -2 0.13014344E-01 0.27700900E+03</pdfrwt>
<totfact> 0.63804954E+03</totfact>
</mgrwt>
</event>
<event>
 5    1  0.1139158E+001  0.2750023E+03  0.7818608E-02  0.1098450E+00
          2   -1    0    0  501    0  0.00000000000E+00  0.00000000000E+00  0.81857047881E+03  0.81857047881E+03  0.00000000000E+00 0.  1.
         -2   -1    0    0    0  501 -0.00000000000E+00 -0.00000000000E+00 -0.23097045368E+02  0.23097045368E+02  0.00000000000E+00 0.  1.
         35    2    1    2    0    0  0.00000000000E+00  0.00000000000E+00  0.79547343344E+03  0.84166752417E+03  0.27500225080E+03 0.  0.
         25    1    3    3    0    0 -0.28933951176E+02 -0.51137578493E+02  0.49711544433E+03  0.51475818640E+03  0.12000000000E+03 0.  0.
         25    1    3    3    0    0  0.28933951176E+02  0.51137578493E+02  0.29835798910E+03  0.32690933778E+03  0.12000000000E+03 0.  0.
<mgrwt>
<rscale>  0 0.27500225E+03</rscale>
<asrwt>0</asrwt>
<pdfrwt beam="1">  1        2 0.12593390E+00 0.27500225E+03</pdfrwt>
<pdfrwt beam="2">  1       -2 0.35533922E-02 0.27500225E+03</pdfrwt>
<totfact> 0.11278465E+04</totfact>
</mgrwt>
</event>
<event>
 5    1  0.1139158E+001  0.2742099E+03  0.7818608E-02  0.1098894E+00
         -2   -1    0    0    0  501 -0.00000000000E+00  0.00000000000E+00  0.58674876559E+02  0.58674876559E+02  0.00000000000E+00 0. -1.
          2   -1    0    0  501    0  0.00000000000E+00 -0.00000000000E+00 -0.32037166207E+03  0.32037166207E+03  0.00000000000E+00 0. -1.
         35    2    1    2    0    0  0.00000000000E+00  0.00000000000E+00 -0.26169678551E+03  0.37904653863E+03  0.27420990299E+03 0.  0.
         25    1    3    3    0    0  0.44260871330E+02  0.21900961504E+02 -0.19203222723E+03  0.23176508180E+03  0.12000000000E+03 0.  0.
         25    1    3    3    0    0 -0.44260871330E+02 -0.21900961504E+02 -0.69664558279E+02  0.14728145683E+03  0.12000000000E+03 0.  0.
<mgrwt>
<rscale>  0 0.27420990E+03</rscale>
<asrwt>0</asrwt>
<pdfrwt beam="1">  1        2 0.49287948E-01 0.27420990E+03</pdfrwt>
<pdfrwt beam="2">  1       -2 0.90269040E-02 0.27420990E+03</pdfrwt>
<totfact> 0.78921781E+03</totfact>
</mgrwt>
</event>
<event>
 5    1  0.1139158E+001  0.2736063E+03  0.7818608E-02  0.1099233E+00
         -4   -1    0    0    0  501 -0.00000000000E+00  0.00000000000E+00  0.18148608446E+04  0.18148608446E+04  0.00000000000E+00 0.  1.
          4   -1    0    0  501    0  0.00000000000E+00 -0.00000000000E+00 -0.10312145226E+02  0.10312145226E+02  0.00000000000E+00 0.  1.
         35    2    1    2    0    0  0.00000000000E+00  0.00000000000E+00  0.18045486993E+04  0.18251729898E+04  0.27360634930E+03 0.  0.
         25    1    3    3    0    0 -0.11092538534E+02 -0.64200414069E+02  0.95823397168E+03  0.96791377821E+03  0.12000000000E+03 0.  0.
         25    1    3    3    0    0  0.11092538534E+02  0.64200414069E+02  0.84631472766E+03  0.85725921157E+03  0.12000000000E+03 0.  0.
<mgrwt>
<rscale>  0 0.27360635E+03</rscale>
<asrwt>0</asrwt>
<pdfrwt beam="1">  1        4 0.15864853E-02 0.27360635E+03</pdfrwt>
<pdfrwt beam="2">  1       -4 0.27920911E+00 0.27360635E+03</pdfrwt>
<totfact> 0.13064709E+02</totfact>
</mgrwt>
</event>
<event>
 5    1  0.1139158E+001  0.2746053E+03  0.7818608E-02  0.1098672E+00
         -2   -1    0    0    0  501 -0.00000000000E+00  0.00000000000E+00  0.87009174775E+02  0.87009174775E+02  0.00000000000E+00 0.  1.
          2   -1    0    0  501    0  0.00000000000E+00 -0.00000000000E+00 -0.21666700292E+03  0.21666700292E+03  0.00000000000E+00 0.  1.
         35    2    1    2    0    0  0.00000000000E+00  0.00000000000E+00 -0.12965782815E+03  0.30367617770E+03  0.27460529584E+03 0.  0.
         25    1    3    3    0    0 -0.64003630947E+02 -0.68349160563E+01 -0.84263082741E+02  0.16013571733E+03  0.12000000000E+03 0.  0.
         25    1    3    3    0    0  0.64003630947E+02  0.68349160563E+01 -0.45394745406E+02  0.14354046037E+03  0.12000000000E+03 0.  0.
<mgrwt>
<rscale>  0 0.27460530E+03</rscale>
<asrwt>0</asrwt>
<pdfrwt beam="1">  1        2 0.33333385E-01 0.27460530E+03</pdfrwt>
<pdfrwt beam="2">  1       -2 0.13386027E-01 0.27460530E+03</pdfrwt>
<totfact> 0.64019275E+03</totfact>
</mgrwt>
</event>
<event>
 5    1  0.1139158E+001  0.2746442E+03  0.7818608E-02  0.1098651E+00
         -3   -1    0    0    0  501 -0.00000000000E+00  0.00000000000E+00  0.53068840404E+03  0.53068840404E+03  0.00000000000E+00 0. -1.
          3   -1    0    0  501    0  0.00000000000E+00 -0.00000000000E+00 -0.35533763868E+02  0.35533763868E+02  0.00000000000E+00 0. -1.
         35    2    1    2    0    0  0.00000000000E+00  0.00000000000E+00  0.49515464017E+03  0.56622216790E+03  0.27464418025E+03 0.  0.
         25    1    3    3    0    0 -0.86287857622E+01  0.56204150426E+02  0.31970568816E+03  0.34618649528E+03  0.12000000000E+03 0.  0.
         25    1    3    3    0    0  0.86287857622E+01 -0.56204150426E+02  0.17544895200E+03  0.22003567263E+03  0.12000000000E+03 0.  0.
<mgrwt>
<rscale>  0 0.27464418E+03</rscale>
<asrwt>0</asrwt>
<pdfrwt beam="1">  1        3 0.54667333E-02 0.27464418E+03</pdfrwt>
<pdfrwt beam="2">  1       -3 0.81644364E-01 0.27464418E+03</pdfrwt>
<totfact> 0.71566675E+02</totfact>
</mgrwt>
</event>
<event>
 5    1  0.1139158E+001  0.2753280E+03  0.7818608E-02  0.1098268E+00
          1   -1    0    0  501    0  0.00000000000E+00  0.00000000000E+00  0.19113370848E+04  0.19113370848E+04  0.00000000000E+00 0. -1.
         -1   -1    0    0    0  501 -0.00000000000E+00 -0.00000000000E+00 -0.99152436719E+01  0.99152436719E+01  0.00000000000E+00 0. -1.
         35    2    1    2    0    0  0.00000000000E+00  0.00000000000E+00  0.19014218412E+04  0.19212523285E+04  0.27532797123E+03 0.  0.
         25    1    3    3    0    0  0.59597375228E+02 -0.31576840164E+02  0.93983553131E+03  0.94986302690E+03  0.12000000000E+03 0.  0.
         25    1    3    3    0    0 -0.59597375228E+02  0.31576840164E+02  0.96158630984E+03  0.97138930159E+03  0.12000000000E+03 0.  0.
<mgrwt>
<rscale>  0 0.27532797E+03</rscale>
<asrwt>0</asrwt>
<pdfrwt beam="1">  1        1 0.29405157E+00 0.27532797E+03</pdfrwt>
<pdfrwt beam="2">  1       -1 0.15254236E-02 0.27532797E+03</pdfrwt>
<totfact> 0.39232589E+03</totfact>
</mgrwt>
</event>
<event>
 5    1  0.1139158E+001  0.2789795E+03  0.7818608E-02  0.1096248E+00
         -1   -1    0    0    0  501 -0.00000000000E+00  0.00000000000E+00  0.47998698758E+02  0.47998698758E+02  0.00000000000E+00 0. -1.
          1   -1    0    0  501    0  0.00000000000E+00 -0.00000000000E+00 -0.40537334679E+03  0.40537334679E+03  0.00000000000E+00 0. -1.
         35    2    1    2    0    0  0.00000000000E+00  0.00000000000E+00 -0.35737464803E+03  0.45337204554E+03  0.27897952009E+03 0.  0.
         25    1    3    3    0    0 -0.64133940917E+02  0.30651890487E+02 -0.17516702617E+03  0.22391111591E+03  0.12000000000E+03 0.  0.
         25    1    3    3    0    0  0.64133940917E+02 -0.30651890487E+02 -0.18220762185E+03  0.22946092964E+03  0.12000000000E+03 0.  0.
<mgrwt>
<rscale>  0 0.27897952E+03</rscale>
<asrwt>0</asrwt>
<pdfrwt beam="1">  1        1 0.62365127E-01 0.27897952E+03</pdfrwt>
<pdfrwt beam="2">  1       -1 0.73844156E-02 0.27897952E+03</pdfrwt>
<totfact> 0.57688759E+03</totfact>
</mgrwt>
</event>
<event>
 5    1  0.1139158E+001  0.2748898E+03  0.7818608E-02  0.1098513E+00
         -1   -1    0    0    0  501 -0.00000000000E+00  0.00000000000E+00  0.23434740463E+02  0.23434740463E+02  0.00000000000E+00 0. -1.
          1   -1    0    0  501    0  0.00000000000E+00 -0.00000000000E+00 -0.80611501911E+03  0.80611501911E+03  0.00000000000E+00 0. -1.
         35    2    1    2    0    0  0.00000000000E+00  0.00000000000E+00 -0.78268027865E+03  0.82954975957E+03  0.27488976886E+03 0.  0.
         25    1    3    3    0    0 -0.54676094633E+02 -0.27605261639E+02 -0.30927217817E+03  0.33734375047E+03  0.12000000000E+03 0.  0.
         25    1    3    3    0    0  0.54676094633E+02  0.27605261639E+02 -0.47340810048E+03  0.49220600910E+03  0.12000000000E+03 0.  0.
<mgrwt>
<rscale>  0 0.27488977E+03</rscale>
<asrwt>0</asrwt>
<pdfrwt beam="1">  1        1 0.12401770E+00 0.27488977E+03</pdfrwt>
<pdfrwt beam="2">  1       -1 0.36053445E-02 0.27488977E+03</pdfrwt>
<totfact> 0.65255987E+03</totfact>
</mgrwt>
</event>
<event>
 5    1  0.1139158E+001  0.2761606E+03  0.7818608E-02  0.1097805E+00
          3   -1    0    0  501    0  0.00000000000E+00  0.00000000000E+00  0.16543299759E+03  0.16543299759E+03  0.00000000000E+00 0.  1.
         -3   -1    0    0    0  501 -0.00000000000E+00 -0.00000000000E+00 -0.11525011089E+03  0.11525011089E+03  0.00000000000E+00 0.  1.
         35    2    1    2    0    0  0.00000000000E+00  0.00000000000E+00  0.50182886700E+02  0.28068310849E+03  0.27616061499E+03 0.  0.
         25    1    3    3    0    0 -0.62912621311E+02 -0.14576018060E+02  0.47720671055E+02  0.14438739789E+03  0.12000000000E+03 0.  0.
         25    1    3    3    0    0  0.62912621311E+02  0.14576018060E+02  0.24622156447E+01  0.13629571060E+03  0.12000000000E+03 0.  0.
<mgrwt>
<rscale>  0 0.27616061E+03</rscale>
<asrwt>0</asrwt>
<pdfrwt beam="1">  1        3 0.25451230E-01 0.27616061E+03</pdfrwt>
<pdfrwt beam="2">  1       -3 0.17730786E-01 0.27616061E+03</pdfrwt>
<totfact> 0.10269340E+03</totfact>
</mgrwt>
</event>
<event>
 5    1  0.1139158E+001  0.2751386E+03  0.7818608E-02  0.1098374E+00
          2   -1    0    0  501    0  0.00000000000E+00  0.00000000000E+00  0.20670649676E+04  0.20670649676E+04  0.00000000000E+00 0. -1.
         -2   -1    0    0    0  501 -0.00000000000E+00 -0.00000000000E+00 -0.91556454980E+01  0.91556454980E+01  0.00000000000E+00 0. -1.
         35    2    1    2    0    0  0.00000000000E+00  0.00000000000E+00  0.20579093221E+04  0.20762206131E+04  0.27513861281E+03 0.  0.
         25    1    3    3    0    0 -0.49421999971E+02 -0.43850210421E+02  0.93352152766E+03  0.94351884859E+03  0.12000000000E+03 0.  0.
         25    1    3    3    0    0  0.49421999971E+02  0.43850210421E+02  0.11243877944E+04  0.11327017645E+04  0.12000000000E+03 0.  0.
<mgrwt>
<rscale>  0 0.27513861E+03</rscale>
<asrwt>0</asrwt>
<pdfrwt beam="1">  1        2 0.31800962E+00 0.27513861E+03</pdfrwt>
<pdfrwt beam="2">  1       -2 0.14085625E-02 0.27513861E+03</pdfrwt>
<totfact> 0.88591502E+03</totfact>
</mgrwt>
</event>
<event>
 5    1  0.1139158E+001  0.2762771E+03  0.7818608E-02  0.1097740E+00
         -1   -1    0    0    0  501 -0.00000000000E+00  0.00000000000E+00  0.53581676235E+02  0.53581676235E+02  0.00000000000E+00 0. -1.
          1   -1    0    0  501    0  0.00000000000E+00 -0.00000000000E+00 -0.35613416413E+03  0.35613416413E+03  0.00000000000E+00 0. -1.
         35    2    1    2    0    0  0.00000000000E+00  0.00000000000E+00 -0.30255248790E+03  0.40971584037E+03  0.27627714693E+03 0.  0.
         25    1    3    3    0    0 -0.10293187269E+02 -0.66021479678E+02 -0.12940631106E+03  0.18870818431E+03  0.12000000000E+03 0.  0.
         25    1    3    3    0    0  0.10293187269E+02  0.66021479678E+02 -0.17314617684E+03  0.22100765606E+03  0.12000000000E+03 0.  0.
<mgrwt>
<rscale>  0 0.27627715E+03</rscale>
<asrwt>0</asrwt>
<pdfrwt beam="1">  1        1 0.54789873E-01 0.27627715E+03</pdfrwt>
<pdfrwt beam="2">  1       -1 0.82433345E-02 0.27627715E+03</pdfrwt>
<totfact> 0.57524511E+03</totfact>
</mgrwt>
</event>
<event>
 5    1  0.1139158E+001  0.2734061E+03  0.7818608E-02  0.1099346E+00
         -2   -1    0    0    0  501 -0.00000000000E+00  0.00000000000E+00  0.44508184188E+02  0.44508184188E+02  0.00000000000E+00 0.  1.
          2   -1    0    0  501    0  0.00000000000E+00 -0.00000000000E+00 -0.41987154500E+03  0.41987154500E+03  0.00000000000E+00 0.  1.
         35    2    1    2    0    0  0.00000000000E+00  0.00000000000E+00 -0.37536336081E+03  0.46437972919E+03  0.27340607206E+03 0.  0.
         25    1    3    3    0    0  0.27913989367E+02  0.56361248234E+02 -0.15673641514E+03  0.20717645845E+03  0.12000000000E+03 0.  0.
         25    1    3    3    0    0 -0.27913989367E+02 -0.56361248234E+02 -0.21862694567E+03  0.25720327074E+03  0.12000000000E+03 0.  0.
<mgrwt>
<rscale>  0 0.27340607E+03</rscale>
<asrwt>0</asrwt>
<pdfrwt beam="1">  1        2 0.64595622E-01 0.27340607E+03</pdfrwt>
<pdfrwt beam="2">  1       -2 0.68474130E-02 0.27340607E+03</pdfrwt>
<totfact> 0.90642998E+03</totfact>
</mgrwt>
</event>
<event>
 5    1  0.1139158E+001  0.2742093E+03  0.7818608E-02  0.1098894E+00
          1   -1    0    0  501    0  0.00000000000E+00  0.00000000000E+00  0.10026337626E+04  0.10026337626E+04  0.00000000000E+00 0. -1.
         -1   -1    0    0    0  501 -0.00000000000E+00 -0.00000000000E+00 -0.18748307385E+02  0.18748307385E+02  0.00000000000E+00 0. -1.
         35    2    1    2    0    0  0.00000000000E+00  0.00000000000E+00  0.98388545525E+03  0.10213820700E+04  0.27420930674E+03 0.  0.
         25    1    3    3    0    0 -0.58532578874E+02  0.28363549286E+02  0.44378830505E+03  0.46430444044E+03  0.12000000000E+03 0.  0.
         25    1    3    3    0    0  0.58532578874E+02 -0.28363549286E+02  0.54009715020E+03  0.55707762957E+03  0.12000000000E+03 0.  0.
<mgrwt>
<rscale>  0 0.27420931E+03</rscale>
<asrwt>0</asrwt>
<pdfrwt beam="1">  1        1 0.15425131E+00 0.27420931E+03</pdfrwt>
<pdfrwt beam="2">  1       -1 0.28843558E-02 0.27420931E+03</pdfrwt>
<totfact> 0.63592580E+03</totfact>
</mgrwt>
</event>
<event>
 5    1  0.1139158E+001  0.2749716E+03  0.7818608E-02  0.1098467E+00
          1   -1    0    0  501    0  0.00000000000E+00  0.00000000000E+00  0.20017121640E+04  0.20017121640E+04  0.00000000000E+00 0.  1.
         -1   -1    0    0    0  501 -0.00000000000E+00 -0.00000000000E+00 -0.94430913435E+01  0.94430913435E+01  0.00000000000E+00 0.  1.
         35    2    1    2    0    0  0.00000000000E+00  0.00000000000E+00  0.19922690727E+04  0.20111552554E+04  0.27497164078E+03 0.  0.
         25    1    3    3    0    0 -0.10777391808E+02 -0.54090643086E+02  0.71662685431E+03  0.72869472220E+03  0.12000000000E+03 0.  0.
         25    1    3    3    0    0  0.10777391808E+02  0.54090643086E+02  0.12756422184E+04  0.12824605332E+04  0.12000000000E+03 0.  0.
<mgrwt>
<rscale>  0 0.27497164E+03</rscale>
<asrwt>0</asrwt>
<pdfrwt beam="1">  1        1 0.30795538E+00 0.27497164E+03</pdfrwt>
<pdfrwt beam="2">  1       -1 0.14527849E-02 0.27497164E+03</pdfrwt>
<totfact> 0.36797751E+03</totfact>
</mgrwt>
</event>
<event>
 5    1  0.1139158E+001  0.2837106E+03  0.7818608E-02  0.1093679E+00
         -2   -1    0    0    0  501 -0.00000000000E+00  0.00000000000E+00  0.25055750294E+02  0.25055750294E+02  0.00000000000E+00 0.  1.
          2   -1    0    0  501    0  0.00000000000E+00 -0.00000000000E+00 -0.80312625669E+03  0.80312625669E+03  0.00000000000E+00 0.  1.
         35    2    1    2    0    0  0.00000000000E+00  0.00000000000E+00 -0.77807050639E+03  0.82818200698E+03  0.28371063387E+03 0.  0.
         25    1    3    3    0    0  0.23895609007E+02  0.60563896873E+02 -0.27658534387E+03  0.30844519477E+03  0.12000000000E+03 0.  0.
         25    1    3    3    0    0 -0.23895609007E+02 -0.60563896873E+02 -0.50148516253E+03  0.51973681221E+03  0.12000000000E+03 0.  0.
<mgrwt>
<rscale>  0 0.28371063E+03</rscale>
<asrwt>0</asrwt>
<pdfrwt beam="1">  1        2 0.12355788E+00 0.28371063E+03</pdfrwt>
<pdfrwt beam="2">  1       -2 0.38547311E-02 0.28371063E+03</pdfrwt>
<totfact> 0.10239100E+04</totfact>
</mgrwt>
</event>
<event>
 5    1  0.1139158E+001  0.2751253E+03  0.7818608E-02  0.1098382E+00
         -2   -1    0    0    0  501 -0.00000000000E+00  0.00000000000E+00  0.16183283742E+03  0.16183283742E+03  0.00000000000E+00 0.  1.
          2   -1    0    0  501    0  0.00000000000E+00 -0.00000000000E+00 -0.11693228530E+03  0.11693228530E+03  0.00000000000E+00 0.  1.
         35    2    1    2    0    0  0.00000000000E+00  0.00000000000E+00  0.44900552121E+02  0.27876512272E+03  0.27512530611E+03 0.  0.
         25    1    3    3    0    0  0.48740226795E+02  0.32193698018E+02 -0.11329038609E+02  0.13394174486E+03  0.12000000000E+03 0.  0.
         25    1    3    3    0    0 -0.48740226795E+02 -0.32193698018E+02  0.56229590730E+02  0.14482337786E+03  0.12000000000E+03 0.  0.
<mgrwt>
<rscale>  0 0.27512531E+03</rscale>
<asrwt>0</asrwt>
<pdfrwt beam="1">  1        2 0.17989582E-01 0.27512531E+03</pdfrwt>
<pdfrwt beam="2">  1       -2 0.24897360E-01 0.27512531E+03</pdfrwt>
<totfact> 0.44708216E+03</totfact>
</mgrwt>
</event>
<event>
 5    1  0.1139158E+001  0.2749394E+03  0.7818608E-02  0.1098485E+00
         -1   -1    0    0    0  501 -0.00000000000E+00  0.00000000000E+00  0.13467092971E+03  0.13467092971E+03  0.00000000000E+00 0. -1.
          1   -1    0    0  501    0  0.00000000000E+00 -0.00000000000E+00 -0.14032663829E+03  0.14032663829E+03  0.00000000000E+00 0. -1.
         35    2    1    2    0    0  0.00000000000E+00  0.00000000000E+00 -0.56557085825E+01  0.27499756800E+03  0.27493940308E+03 0.  0.
         25    1    3    3    0    0 -0.53513767022E+02 -0.29839511282E+02 -0.30106305307E+02  0.13805980340E+03  0.12000000000E+03 0.  0.
         25    1    3    3    0    0  0.53513767022E+02  0.29839511282E+02  0.24450596724E+02  0.13693776460E+03  0.12000000000E+03 0.  0.
<mgrwt>
<rscale>  0 0.27493940E+03</rscale>
<asrwt>0</asrwt>
<pdfrwt beam="1">  1        1 0.21588713E-01 0.27493940E+03</pdfrwt>
<pdfrwt beam="2">  1       -1 0.20718605E-01 0.27493940E+03</pdfrwt>
<totfact> 0.43716897E+03</totfact>
</mgrwt>
</event>
<event>
 5    1  0.1139158E+001  0.2754008E+03  0.7818608E-02  0.1098228E+00
          1   -1    0    0  501    0  0.00000000000E+00  0.00000000000E+00  0.50626257571E+03  0.50626257571E+03  0.00000000000E+00 0.  1.
         -1   -1    0    0    0  501 -0.00000000000E+00 -0.00000000000E+00 -0.37453689256E+02  0.37453689256E+02  0.00000000000E+00 0.  1.
         35    2    1    2    0    0  0.00000000000E+00  0.00000000000E+00  0.46880888645E+03  0.54371626496E+03  0.27540080750E+03 0.  0.
         25    1    3    3    0    0 -0.14446749562E+02  0.56943000689E+02  0.30018616575E+03  0.32857715686E+03  0.12000000000E+03 0.  0.
         25    1    3    3    0    0  0.14446749562E+02 -0.56943000689E+02  0.16862272070E+03  0.21513910811E+03  0.12000000000E+03 0.  0.
<mgrwt>
<rscale>  0 0.27540081E+03</rscale>
<asrwt>0</asrwt>
<pdfrwt beam="1">  1        1 0.77886546E-01 0.27540081E+03</pdfrwt>
<pdfrwt beam="2">  1       -1 0.57621064E-02 0.27540081E+03</pdfrwt>
<totfact> 0.62794134E+03</totfact>
</mgrwt>
</event>
<event>
 5    1  0.1139158E+001  0.2751538E+03  0.7818608E-02  0.1098366E+00
         -2   -1    0    0    0  501 -0.00000000000E+00  0.00000000000E+00  0.29870570759E+02  0.29870570759E+02  0.00000000000E+00 0.  1.
          2   -1    0    0  501    0  0.00000000000E+00 -0.00000000000E+00 -0.63364732564E+03  0.63364732564E+03  0.00000000000E+00 0.  1.
         35    2    1    2    0    0  0.00000000000E+00  0.00000000000E+00 -0.60377675488E+03  0.66351789640E+03  0.27515382808E+03 0.  0.
         25    1    3    3    0    0  0.66305706722E+02  0.10981972627E+02 -0.30964888429E+03  0.33882072252E+03  0.12000000000E+03 0.  0.
         25    1    3    3    0    0 -0.66305706722E+02 -0.10981972627E+02 -0.29412787059E+03  0.32469717388E+03  0.12000000000E+03 0.  0.
<mgrwt>
<rscale>  0 0.27515383E+03</rscale>
<asrwt>0</asrwt>
<pdfrwt beam="1">  1        2 0.97484210E-01 0.27515383E+03</pdfrwt>
<pdfrwt beam="2">  1       -2 0.45954721E-02 0.27515383E+03</pdfrwt>
<totfact> 0.10486437E+04</totfact>
</mgrwt>
</event>
<event>
 5    1  0.1139158E+001  0.2749781E+03  0.7818608E-02  0.1098464E+00
          2   -1    0    0  501    0  0.00000000000E+00  0.00000000000E+00  0.15774331836E+03  0.15774331836E+03  0.00000000000E+00 0. -1.
         -2   -1    0    0    0  501 -0.00000000000E+00 -0.00000000000E+00 -0.11983545327E+03  0.11983545327E+03  0.00000000000E+00 0. -1.
         35    2    1    2    0    0  0.00000000000E+00  0.00000000000E+00  0.37907865086E+02  0.27757877163E+03  0.27497812318E+03 0.  0.
         25    1    3    3    0    0 -0.58367585134E+01 -0.66841441396E+02  0.17761225747E+02  0.13862650244E+03  0.12000000000E+03 0.  0.
         25    1    3    3    0    0  0.58367585134E+01  0.66841441396E+02  0.20146639339E+02  0.13895226920E+03  0.12000000000E+03 0.  0.
<mgrwt>
<rscale>  0 0.27497812E+03</rscale>
<asrwt>0</asrwt>
<pdfrwt beam="1">  1        2 0.24268203E-01 0.27497812E+03</pdfrwt>
<pdfrwt beam="2">  1       -2 0.18436224E-01 0.27497812E+03</pdfrwt>
<totfact> 0.53398045E+03</totfact>
</mgrwt>
</event>
<event>
 5    1  0.1139158E+001  0.2753599E+03  0.7818608E-02  0.1098251E+00
          1   -1    0    0  501    0  0.00000000000E+00  0.00000000000E+00  0.21987235984E+03  0.21987235984E+03  0.00000000000E+00 0.  1.
         -1   -1    0    0    0  501 -0.00000000000E+00 -0.00000000000E+00 -0.86212591496E+02  0.86212591496E+02  0.00000000000E+00 0.  1.
         35    2    1    2    0    0  0.00000000000E+00  0.00000000000E+00  0.13365976834E+03  0.30608495134E+03  0.27535988045E+03 0.  0.
         25    1    3    3    0    0 -0.42179819300E+02 -0.47977309260E+02  0.91051308507E+02  0.16361937581E+03  0.12000000000E+03 0.  0.
         25    1    3    3    0    0  0.42179819300E+02  0.47977309260E+02  0.42608459838E+02  0.14246557553E+03  0.12000000000E+03 0.  0.
<mgrwt>
<rscale>  0 0.27535988E+03</rscale>
<asrwt>0</asrwt>
<pdfrwt beam="1">  1        1 0.33826517E-01 0.27535988E+03</pdfrwt>
<pdfrwt beam="2">  1       -1 0.13263476E-01 0.27535988E+03</pdfrwt>
<totfact> 0.50491169E+03</totfact>
</mgrwt>
</event>
<event>
 5    1  0.1139158E+001  0.2722460E+03  0.7818608E-02  0.1100001E+00
         -2   -1    0    0    0  501 -0.00000000000E+00  0.00000000000E+00  0.10067963775E+02  0.10067963775E+02  0.00000000000E+00 0. -1.
          2   -1    0    0  501    0  0.00000000000E+00 -0.00000000000E+00 -0.18404389420E+04  0.18404389420E+04  0.00000000000E+00 0. -1.
         35    2    1    2    0    0  0.00000000000E+00  0.00000000000E+00 -0.18303709782E+04  0.18505069057E+04  0.27224601078E+03 0.  0.
         25    1    3    3    0    0 -0.64282725468E+01 -0.40251807465E+02 -0.12528587342E+04  0.12592523728E+04  0.12000000000E+03 0.  0.
         25    1    3    3    0    0  0.64282725468E+01  0.40251807465E+02 -0.57751224401E+03  0.59125453289E+03  0.12000000000E+03 0.  0.
<mgrwt>
<rscale>  0 0.27224601E+03</rscale>
<asrwt>0</asrwt>
<pdfrwt beam="1">  1        2 0.28314461E+00 0.27224601E+03</pdfrwt>
<pdfrwt beam="2">  1       -2 0.15489167E-02 0.27224601E+03</pdfrwt>
<totfact> 0.10142245E+04</totfact>
</mgrwt>
</event>
<event>
 5    1  0.1139158E+001  0.2755994E+03  0.7818608E-02  0.1098117E+00
         -2   -1    0    0    0  501 -0.00000000000E+00  0.00000000000E+00  0.85936129469E+01  0.85936129469E+01  0.00000000000E+00 0. -1.
          2   -1    0    0  501    0  0.00000000000E+00 -0.00000000000E+00 -0.22096366661E+04  0.22096366661E+04  0.00000000000E+00 0. -1.
         35    2    1    2    0    0  0.00000000000E+00  0.00000000000E+00 -0.22010430531E+04  0.22182302790E+04  0.27559943586E+03 0.  0.
         25    1    3    3    0    0  0.57354726798E+02  0.94379149693E+01 -0.82053113820E+03  0.83129416435E+03  0.12000000000E+03 0.  0.
         25    1    3    3    0    0 -0.57354726798E+02 -0.94379149693E+01 -0.13805119149E+04  0.13869361147E+04  0.12000000000E+03 0.  0.
<mgrwt>
<rscale>  0 0.27559944E+03</rscale>
<asrwt>0</asrwt>
<pdfrwt beam="1">  1        2 0.33994411E+00 0.27559944E+03</pdfrwt>
<pdfrwt beam="2">  1       -2 0.13220943E-02 0.27559944E+03</pdfrwt>
<totfact> 0.81664836E+03</totfact>
</mgrwt>
</event>
<event>
 5    1  0.1139158E+001  0.2777704E+03  0.7818608E-02  0.1096913E+00
         -2   -1    0    0    0  501 -0.00000000000E+00  0.00000000000E+00  0.13288515496E+02  0.13288515496E+02  0.00000000000E+00 0. -1.
          2   -1    0    0  501    0  0.00000000000E+00 -0.00000000000E+00 -0.14515620983E+04  0.14515620983E+04  0.00000000000E+00 0. -1.
         35    2    1    2    0    0  0.00000000000E+00  0.00000000000E+00 -0.14382735828E+04  0.14648506138E+04  0.27777044794E+03 0.  0.
         25    1    3    3    0    0 -0.32230453195E+00  0.69608790625E+02 -0.75396565444E+03  0.76662226402E+03  0.12000000000E+03 0.  0.
         25    1    3    3    0    0  0.32230453195E+00 -0.69608790625E+02 -0.68430792837E+03  0.69822834978E+03  0.12000000000E+03 0.  0.
<mgrwt>
<rscale>  0 0.27777045E+03</rscale>
<asrwt>0</asrwt>
<pdfrwt beam="1">  1        2 0.22331726E+00 0.27777045E+03</pdfrwt>
<pdfrwt beam="2">  1       -2 0.20443869E-02 0.27777045E+03</pdfrwt>
<totfact> 0.10845684E+04</totfact>
</mgrwt>
</event>
<event>
 5    1  0.1139158E+001  0.2739195E+03  0.7818608E-02  0.1099057E+00
          2   -1    0    0  501    0  0.00000000000E+00  0.00000000000E+00  0.75526952471E+03  0.75526952471E+03  0.00000000000E+00 0.  1.
         -2   -1    0    0    0  501 -0.00000000000E+00 -0.00000000000E+00 -0.24836132802E+02  0.24836132802E+02  0.00000000000E+00 0.  1.
         35    2    1    2    0    0  0.00000000000E+00  0.00000000000E+00  0.73043339190E+03  0.78010565751E+03  0.27391950801E+03 0.  0.
         25    1    3    3    0    0 -0.53065534243E+02 -0.38888185607E+02  0.34968764873E+03  0.37551257446E+03  0.12000000000E+03 0.  0.
         25    1    3    3    0    0  0.53065534243E+02  0.38888185607E+02  0.38074574318E+03  0.40459308305E+03  0.12000000000E+03 0.  0.
<mgrwt>
<rscale>  0 0.27391951E+03</rscale>
<asrwt>0</asrwt>
<pdfrwt beam="1">  1        2 0.11619529E+00 0.27391951E+03</pdfrwt>
<pdfrwt beam="2">  1       -2 0.38209441E-02 0.27391951E+03</pdfrwt>
<totfact> 0.11197532E+04</totfact>
</mgrwt>
</event>
<event>
 5    1  0.1139158E+001  0.2749990E+03  0.7818608E-02  0.1098452E+00
          2   -1    0    0  501    0  0.00000000000E+00  0.00000000000E+00  0.10744783820E+02  0.10744783820E+02  0.00000000000E+00 0.  1.
         -2   -1    0    0    0  501 -0.00000000000E+00 -0.00000000000E+00 -0.17595623228E+04  0.17595623228E+04  0.00000000000E+00 0.  1.
         35    2    1    2    0    0  0.00000000000E+00  0.00000000000E+00 -0.17488175390E+04  0.17703071066E+04  0.27499903110E+03 0.  0.
         25    1    3    3    0    0  0.14171987643E+02  0.56495506879E+02 -0.10892255794E+04  0.10973627250E+04  0.12000000000E+03 0.  0.
         25    1    3    3    0    0 -0.14171987643E+02 -0.56495506879E+02 -0.65959195960E+03  0.67294438158E+03  0.12000000000E+03 0.  0.
<mgrwt>
<rscale>  0 0.27499903E+03</rscale>
<asrwt>0</asrwt>
<pdfrwt beam="1">  1        2 0.16530436E-02 0.27499903E+03</pdfrwt>
<pdfrwt beam="2">  1       -2 0.27070191E+00 0.27499903E+03</pdfrwt>
<totfact> 0.38723814E+02</totfact>
</mgrwt>
</event>
<event>
 5    1  0.1139158E+001  0.2752522E+03  0.7818608E-02  0.1098311E+00
         -3   -1    0    0    0  501 -0.00000000000E+00  0.00000000000E+00  0.46526754677E+02  0.46526754677E+02  0.00000000000E+00 0. -1.
          3   -1    0    0  501    0  0.00000000000E+00 -0.00000000000E+00 -0.40709790600E+03  0.40709790600E+03  0.00000000000E+00 0. -1.
         35    2    1    2    0    0  0.00000000000E+00  0.00000000000E+00 -0.36057115132E+03  0.45362466067E+03  0.27525220727E+03 0.  0.
         25    1    3    3    0    0 -0.68621516061E+01  0.62529055196E+02 -0.22011115081E+03  0.25846835509E+03  0.12000000000E+03 0.  0.
         25    1    3    3    0    0  0.68621516061E+01 -0.62529055196E+02 -0.14046000051E+03  0.19515630559E+03  0.12000000000E+03 0.  0.
<mgrwt>
<rscale>  0 0.27525221E+03</rscale>
<asrwt>0</asrwt>
<pdfrwt beam="1">  1        3 0.62630447E-01 0.27525221E+03</pdfrwt>
<pdfrwt beam="2">  1       -3 0.71579622E-02 0.27525221E+03</pdfrwt>
<totfact> 0.81906364E+02</totfact>
</mgrwt>
</event>
<event>
 5    1  0.1139158E+001  0.2746040E+03  0.7818608E-02  0.1098673E+00
          2   -1    0    0  501    0  0.00000000000E+00  0.00000000000E+00  0.30286729417E+03  0.30286729417E+03  0.00000000000E+00 0. -1.
         -2   -1    0    0    0  501 -0.00000000000E+00 -0.00000000000E+00 -0.62244537953E+02  0.62244537953E+02  0.00000000000E+00 0. -1.
         35    2    1    2    0    0  0.00000000000E+00  0.00000000000E+00  0.24062275622E+03  0.36511183213E+03  0.27460396783E+03 0.  0.
         25    1    3    3    0    0  0.17918640746E+02  0.29895379468E+02  0.19595843179E+03  0.23241023727E+03  0.12000000000E+03 0.  0.
         25    1    3    3    0    0 -0.17918640746E+02 -0.29895379468E+02  0.44664324431E+02  0.13270159485E+03  0.12000000000E+03 0.  0.
<mgrwt>
<rscale>  0 0.27460397E+03</rscale>
<asrwt>0</asrwt>
<pdfrwt beam="1">  1        2 0.46594968E-01 0.27460397E+03</pdfrwt>
<pdfrwt beam="2">  1       -2 0.95760829E-02 0.27460397E+03</pdfrwt>
<totfact> 0.76373110E+03</totfact>
</mgrwt>
</event>
<event>
 5    1  0.1139158E+001  0.2774367E+03  0.7818608E-02  0.1097097E+00
         -2   -1    0    0    0  501 -0.00000000000E+00  0.00000000000E+00  0.17907541438E+02  0.17907541438E+02  0.00000000000E+00 0. -1.
          2   -1    0    0  501    0  0.00000000000E+00 -0.00000000000E+00 -0.10745628495E+04  0.10745628495E+04  0.00000000000E+00 0. -1.
         35    2    1    2    0    0  0.00000000000E+00  0.00000000000E+00 -0.10566553081E+04  0.10924703909E+04  0.27743668651E+03 0.  0.
         25    1    3    3    0    0  0.33192053734E+02  0.61131374590E+02 -0.53622411580E+03  0.55387278300E+03  0.12000000000E+03 0.  0.
         25    1    3    3    0    0 -0.33192053734E+02 -0.61131374590E+02 -0.52043119228E+03  0.53859760794E+03  0.12000000000E+03 0.  0.
<mgrwt>
<rscale>  0 0.27743669E+03</rscale>
<asrwt>0</asrwt>
<pdfrwt beam="1">  1        2 0.16531736E+00 0.27743669E+03</pdfrwt>
<pdfrwt beam="2">  1       -2 0.27550064E-02 0.27743669E+03</pdfrwt>
<totfact> 0.11358654E+04</totfact>
</mgrwt>
</event>
<event>
 4    1  0.1139158E+001  0.2507912E+03  0.7818608E-02  0.1112806E+00
          2   -1    0    0  501    0  0.00000000000E+00  0.00000000000E+00  0.47944542136E+03  0.47944542136E+03  0.00000000000E+00 0.  1.
         -2   -1    0    0    0  501 -0.00000000000E+00 -0.00000000000E+00 -0.32796334351E+02  0.32796334351E+02  0.00000000000E+00 0.  1.
         25    1    1    2    0    0 -0.27165734816E+02  0.24106667514E+02  0.21878311901E+03  0.25216098376E+03  0.12000000000E+03 0.  0.
         25    1    1    2    0    0  0.27165734816E+02 -0.24106667514E+02  0.22786596800E+03  0.26008077196E+03  0.12000000000E+03 0.  0.
<mgrwt>
<rscale>  0 0.25079117E+03</rscale>
<asrwt>0</asrwt>
<pdfrwt beam="1">  1        2 0.73760829E-01 0.25079117E+03</pdfrwt>
<pdfrwt beam="2">  1       -2 0.50455902E-02 0.25079117E+03</pdfrwt>
<totfact> 0.12457955E+04</totfact>
</mgrwt>
</event>
<event>
 5    1  0.1139158E+001  0.2743018E+03  0.7818608E-02  0.1098842E+00
         -1   -1    0    0    0  501 -0.00000000000E+00  0.00000000000E+00  0.39945997702E+02  0.39945997702E+02  0.00000000000E+00 0.  1.
          1   -1    0    0  501    0  0.00000000000E+00 -0.00000000000E+00 -0.47089507287E+03  0.47089507287E+03  0.00000000000E+00 0.  1.
         35    2    1    2    0    0  0.00000000000E+00  0.00000000000E+00 -0.43094907517E+03  0.51084107058E+03  0.27430183010E+03 0.  0.
         25    1    3    3    0    0 -0.50956167326E+02  0.41100219601E+02 -0.19468516802E+03  0.23788247873E+03  0.12000000000E+03 0.  0.
         25    1    3    3    0    0  0.50956167326E+02 -0.41100219601E+02 -0.23626390715E+03  0.27295859184E+03  0.12000000000E+03 0.  0.
<mgrwt>
<rscale>  0 0.27430183E+03</rscale>
<asrwt>0</asrwt>
<pdfrwt beam="1">  1        1 0.72445394E-01 0.27430183E+03</pdfrwt>
<pdfrwt beam="2">  1       -1 0.61455383E-02 0.27430183E+03</pdfrwt>
<totfact> 0.62701366E+03</totfact>
</mgrwt>
</event>
<event>
 5    1  0.1139158E+001  0.2740085E+03  0.7818608E-02  0.1099007E+00
          2   -1    0    0  501    0  0.00000000000E+00  0.00000000000E+00  0.10744127523E+03  0.10744127523E+03  0.00000000000E+00 0.  1.
         -2   -1    0    0    0  501 -0.00000000000E+00 -0.00000000000E+00 -0.17470160832E+03  0.17470160832E+03  0.00000000000E+00 0.  1.
         35    2    1    2    0    0  0.00000000000E+00  0.00000000000E+00 -0.67260333091E+02  0.28214288355E+03  0.27400849317E+03 0.  0.
         25    1    3    3    0    0  0.52923510635E+02 -0.18620754488E+01 -0.74375040810E+02  0.15078465439E+03  0.12000000000E+03 0.  0.
         25    1    3    3    0    0 -0.52923510635E+02  0.18620754488E+01  0.71147077195E+01  0.13135822916E+03  0.12000000000E+03 0.  0.
<mgrwt>
<rscale>  0 0.27400849E+03</rscale>
<asrwt>0</asrwt>
<pdfrwt beam="1">  1        2 0.16529427E-01 0.27400849E+03</pdfrwt>
<pdfrwt beam="2">  1       -2 0.26877170E-01 0.27400849E+03</pdfrwt>
<totfact> 0.43078402E+03</totfact>
</mgrwt>
</event>
<event>
 5    1  0.1139158E+001  0.2639386E+03  0.7818608E-02  0.1104800E+00
         -1   -1    0    0    0  501 -0.00000000000E+00  0.00000000000E+00  0.28296002312E+02  0.28296002312E+02  0.00000000000E+00 0.  1.
          1   -1    0    0  501    0  0.00000000000E+00 -0.00000000000E+00 -0.61548983754E+03  0.61548983754E+03  0.00000000000E+00 0.  1.
         35    2    1    2    0    0  0.00000000000E+00  0.00000000000E+00 -0.58719383523E+03  0.64378583985E+03  0.26393864337E+03 0.  0.
         25    1    3    3    0    0 -0.34192227232E+02  0.38587846880E+02 -0.33973306575E+03  0.36397346922E+03  0.12000000000E+03 0.  0.
         25    1    3    3    0    0  0.34192227232E+02 -0.38587846880E+02 -0.24746076948E+03  0.27981237063E+03  0.12000000000E+03 0.  0.
<mgrwt>
<rscale>  0 0.26393864E+03</rscale>
<asrwt>0</asrwt>
<pdfrwt beam="1">  1        1 0.94690733E-01 0.26393864E+03</pdfrwt>
<pdfrwt beam="2">  1       -1 0.43532316E-02 0.26393864E+03</pdfrwt>
<totfact> 0.73132112E+03</totfact>
</mgrwt>
</event>
<event>
 5    1  0.1139158E+001  0.2745529E+03  0.7818608E-02  0.1098702E+00
         -2   -1    0    0    0  501 -0.00000000000E+00  0.00000000000E+00  0.48623560432E+02  0.48623560432E+02  0.00000000000E+00 0.  1.
          2   -1    0    0  501    0  0.00000000000E+00 -0.00000000000E+00 -0.38756562911E+03  0.38756562911E+03  0.00000000000E+00 0.  1.
         35    2    1    2    0    0  0.00000000000E+00  0.00000000000E+00 -0.33894206868E+03  0.43618918954E+03  0.27455287861E+03 0.  0.
         25    1    3    3    0    0 -0.65082879722E+02  0.17498915856E+01 -0.19227228763E+03  0.23581237445E+03  0.12000000000E+03 0.  0.
         25    1    3    3    0    0  0.65082879722E+02 -0.17498915856E+01 -0.14666978105E+03  0.20037681509E+03  0.12000000000E+03 0.  0.
<mgrwt>
<rscale>  0 0.27455288E+03</rscale>
<asrwt>0</asrwt>
<pdfrwt beam="1">  1        2 0.59625481E-01 0.27455288E+03</pdfrwt>
<pdfrwt beam="2">  1       -2 0.74805478E-02 0.27455288E+03</pdfrwt>
<totfact> 0.86232837E+03</totfact>
</mgrwt>
</event>
<event>
 5    1  0.1139158E+001  0.2749928E+03  0.7818608E-02  0.1098456E+00
          1   -1    0    0  501    0  0.00000000000E+00  0.00000000000E+00  0.14017596091E+03  0.14017596091E+03  0.00000000000E+00 0.  1.
         -1   -1    0    0    0  501 -0.00000000000E+00 -0.00000000000E+00 -0.13486806378E+03  0.13486806378E+03  0.00000000000E+00 0.  1.
         35    2    1    2    0    0  0.00000000000E+00  0.00000000000E+00  0.53078971297E+01  0.27504402469E+03  0.27499280308E+03 0.  0.
         25    1    3    3    0    0 -0.55004191771E+02  0.35945944711E+02 -0.11048544239E+02  0.13725757678E+03  0.12000000000E+03 0.  0.
         25    1    3    3    0    0  0.55004191771E+02 -0.35945944711E+02  0.16356441369E+02  0.13778644791E+03  0.12000000000E+03 0.  0.
<mgrwt>
<rscale>  0 0.27499280E+03</rscale>
<asrwt>0</asrwt>
<pdfrwt beam="1">  1        1 0.21565532E-01 0.27499280E+03</pdfrwt>
<pdfrwt beam="2">  1       -1 0.20748933E-01 0.27499280E+03</pdfrwt>
<totfact> 0.43673113E+03</totfact>
</mgrwt>
</event>
<event>
 5    1  0.1139158E+001  0.2749504E+03  0.7818608E-02  0.1098479E+00
          2   -1    0    0  501    0  0.00000000000E+00  0.00000000000E+00  0.20044804529E+04  0.20044804529E+04  0.00000000000E+00 0. -1.
         -2   -1    0    0    0  501 -0.00000000000E+00 -0.00000000000E+00 -0.94285897231E+01  0.94285897231E+01  0.00000000000E+00 0. -1.
         35    2    1    2    0    0  0.00000000000E+00  0.00000000000E+00  0.19950518632E+04  0.20139090426E+04  0.27495035041E+03 0.  0.
         25    1    3    3    0    0  0.12343748412E+02 -0.63367306895E+02  0.11309146460E+04  0.11390942543E+04  0.12000000000E+03 0.  0.
         25    1    3    3    0    0 -0.12343748412E+02  0.63367306895E+02  0.86413721719E+03  0.87481478831E+03  0.12000000000E+03 0.  0.
<mgrwt>
<rscale>  0 0.27495035E+03</rscale>
<asrwt>0</asrwt>
<pdfrwt beam="1">  1        2 0.30838127E+00 0.27495035E+03</pdfrwt>
<pdfrwt beam="2">  1       -2 0.14505539E-02 0.27495035E+03</pdfrwt>
<totfact> 0.91562485E+03</totfact>
</mgrwt>
</event>
<event>
 5    1  0.1139158E+001  0.2750871E+03  0.7818608E-02  0.1098403E+00
         -1   -1    0    0    0  501 -0.00000000000E+00  0.00000000000E+00  0.26909063074E+03  0.26909063074E+03  0.00000000000E+00 0.  1.
          1   -1    0    0  501    0  0.00000000000E+00 -0.00000000000E+00 -0.70304285141E+02  0.70304285141E+02  0.00000000000E+00 0.  1.
         35    2    1    2    0    0  0.00000000000E+00  0.00000000000E+00  0.19878634560E+03  0.33939491588E+03  0.27508707300E+03 0.  0.
         25    1    3    3    0    0  0.25507626796E+02  0.89621389515E+01  0.17532048466E+03  0.21416869822E+03  0.12000000000E+03 0.  0.
         25    1    3    3    0    0 -0.25507626796E+02 -0.89621389515E+01  0.23465860947E+02  0.12522621766E+03  0.12000000000E+03 0.  0.
<mgrwt>
<rscale>  0 0.27508707E+03</rscale>
<asrwt>0</asrwt>
<pdfrwt beam="1">  1        1 0.10816044E-01 0.27508707E+03</pdfrwt>
<pdfrwt beam="2">  1       -1 0.41398558E-01 0.27508707E+03</pdfrwt>
<totfact> 0.33345491E+03</totfact>
</mgrwt>
</event>
<event>
 5    1  0.1139158E+001  0.2768024E+03  0.7818608E-02  0.1097448E+00
          1   -1    0    0  501    0  0.00000000000E+00  0.00000000000E+00  0.21245627314E+04  0.21245627314E+04  0.00000000000E+00 0.  1.
         -1   -1    0    0    0  501 -0.00000000000E+00 -0.00000000000E+00 -0.90159208324E+01  0.90159208324E+01  0.00000000000E+00 0.  1.
         35    2    1    2    0    0  0.00000000000E+00  0.00000000000E+00  0.21155468106E+04  0.21335786522E+04  0.27680237997E+03 0.  0.
         25    1    3    3    0    0  0.42251427569E+02  0.44211925097E+02  0.81220391297E+03  0.82329525305E+03  0.12000000000E+03 0.  0.
         25    1    3    3    0    0 -0.42251427569E+02 -0.44211925097E+02  0.13033428976E+04  0.13102833992E+04  0.12000000000E+03 0.  0.
<mgrwt>
<rscale>  0 0.27680238E+03</rscale>
<asrwt>0</asrwt>
<pdfrwt beam="1">  1        1 0.32685541E+00 0.27680238E+03</pdfrwt>
<pdfrwt beam="2">  1       -1 0.13870664E-02 0.27680238E+03</pdfrwt>
<totfact> 0.32746614E+03</totfact>
</mgrwt>
</event>
<event>
 5    1  0.1139158E+001  0.2747695E+03  0.7818608E-02  0.1098580E+00
         -2   -1    0    0    0  501 -0.00000000000E+00  0.00000000000E+00  0.29160999474E+02  0.29160999474E+02  0.00000000000E+00 0. -1.
          2   -1    0    0  501    0  0.00000000000E+00 -0.00000000000E+00 -0.64725408243E+03  0.64725408243E+03  0.00000000000E+00 0. -1.
         35    2    1    2    0    0  0.00000000000E+00  0.00000000000E+00 -0.61809308295E+03  0.67641508190E+03  0.27476954676E+03 0.  0.
         25    1    3    3    0    0 -0.38168447993E+02 -0.50116161681E+02 -0.36442867268E+03  0.38881450276E+03  0.12000000000E+03 0.  0.
         25    1    3    3    0    0  0.38168447993E+02  0.50116161681E+02 -0.25366441027E+03  0.28760057914E+03  0.12000000000E+03 0.  0.
<mgrwt>
<rscale>  0 0.27476955E+03</rscale>
<asrwt>0</asrwt>
<pdfrwt beam="1">  1        2 0.99577548E-01 0.27476955E+03</pdfrwt>
<pdfrwt beam="2">  1       -2 0.44863078E-02 0.27476955E+03</pdfrwt>
<totfact> 0.10604660E+04</totfact>
</mgrwt>
</event>
<event>
 5    1  0.1139158E+001  0.2747295E+03  0.7818608E-02  0.1098603E+00
          2   -1    0    0  501    0  0.00000000000E+00  0.00000000000E+00  0.27208587338E+02  0.27208587338E+02  0.00000000000E+00 0.  1.
         -2   -1    0    0    0  501 -0.00000000000E+00 -0.00000000000E+00 -0.69349707612E+03  0.69349707612E+03  0.00000000000E+00 0.  1.
         35    2    1    2    0    0  0.00000000000E+00  0.00000000000E+00 -0.66628848878E+03  0.72070566346E+03  0.27472950889E+03 0.  0.
         25    1    3    3    0    0  0.13135656159E+02  0.28088663238E+02 -0.17777859229E+03  0.21671812647E+03  0.12000000000E+03 0.  0.
         25    1    3    3    0    0 -0.13135656159E+02 -0.28088663238E+02 -0.48850989650E+03  0.50398753699E+03  0.12000000000E+03 0.  0.
<mgrwt>
<rscale>  0 0.27472951E+03</rscale>
<asrwt>0</asrwt>
<pdfrwt beam="1">  1        2 0.41859370E-02 0.27472951E+03</pdfrwt>
<pdfrwt beam="2">  1       -2 0.10669184E+00 0.27472951E+03</pdfrwt>
<totfact> 0.14670460E+03</totfact>
</mgrwt>
</event>
<event>
 5    1  0.1139158E+001  0.2740350E+03  0.7818608E-02  0.1098992E+00
         -1   -1    0    0    0  501 -0.00000000000E+00  0.00000000000E+00  0.11790299173E+03  0.11790299173E+03  0.00000000000E+00 0. -1.
          1   -1    0    0  501    0  0.00000000000E+00 -0.00000000000E+00 -0.15923083547E+03  0.15923083547E+03  0.00000000000E+00 0. -1.
         35    2    1    2    0    0  0.00000000000E+00  0.00000000000E+00 -0.41327843745E+02  0.27713382720E+03  0.27403497498E+03 0.  0.
         25    1    3    3    0    0 -0.11215197561E+02  0.50912729109E+02 -0.61816901378E+02  0.14470389054E+03  0.12000000000E+03 0.  0.
         25    1    3    3    0    0  0.11215197561E+02 -0.50912729109E+02  0.20489057633E+02  0.13242993666E+03  0.12000000000E+03 0.  0.
<mgrwt>
<rscale>  0 0.27403497E+03</rscale>
<asrwt>0</asrwt>
<pdfrwt beam="1">  1        1 0.24497052E-01 0.27403497E+03</pdfrwt>
<pdfrwt beam="2">  1       -1 0.18138922E-01 0.27403497E+03</pdfrwt>
<totfact> 0.46137407E+03</totfact>
</mgrwt>
</event>
<event>
 5    1  0.1139158E+001  0.2745934E+03  0.7818608E-02  0.1098679E+00
         -2   -1    0    0    0  501 -0.00000000000E+00  0.00000000000E+00  0.18668586764E+02  0.18668586764E+02  0.00000000000E+00 0.  1.
          2   -1    0    0  501    0  0.00000000000E+00 -0.00000000000E+00 -0.10097380386E+04  0.10097380386E+04  0.00000000000E+00 0.  1.
         35    2    1    2    0    0  0.00000000000E+00  0.00000000000E+00 -0.99106945181E+03  0.10284066253E+04  0.27459338799E+03 0.  0.
         25    1    3    3    0    0 -0.27361158884E+02 -0.43874419376E+02 -0.33766743086E+03  0.36206752347E+03  0.12000000000E+03 0.  0.
         25    1    3    3    0    0  0.27361158884E+02  0.43874419376E+02 -0.65340202095E+03  0.66633910186E+03  0.12000000000E+03 0.  0.
<mgrwt>
<rscale>  0 0.27459339E+03</rscale>
<asrwt>0</asrwt>
<pdfrwt beam="1">  1        2 0.15534426E+00 0.27459339E+03</pdfrwt>
<pdfrwt beam="2">  1       -2 0.28720912E-02 0.27459339E+03</pdfrwt>
<totfact> 0.11676807E+04</totfact>
</mgrwt>
</event>
<event>
 5    1  0.1139158E+001  0.2750981E+03  0.7818608E-02  0.1098397E+00
         -2   -1    0    0    0  501 -0.00000000000E+00  0.00000000000E+00  0.39868095143E+02  0.39868095143E+02  0.00000000000E+00 0.  1.
          2   -1    0    0  501    0  0.00000000000E+00 -0.00000000000E+00 -0.47455831254E+03  0.47455831254E+03  0.00000000000E+00 0.  1.
         35    2    1    2    0    0  0.00000000000E+00  0.00000000000E+00 -0.43469021740E+03  0.51442640768E+03  0.27509806219E+03 0.  0.
         25    1    3    3    0    0 -0.43817386225E+02  0.84566105811E+01 -0.31137078139E+03  0.33666487952E+03  0.12000000000E+03 0.  0.
         25    1    3    3    0    0  0.43817386225E+02 -0.84566105811E+01 -0.12331943601E+03  0.17776152816E+03  0.12000000000E+03 0.  0.
<mgrwt>
<rscale>  0 0.27509806E+03</rscale>
<asrwt>0</asrwt>
<pdfrwt beam="1">  1        2 0.73008970E-01 0.27509806E+03</pdfrwt>
<pdfrwt beam="2">  1       -2 0.61335532E-02 0.27509806E+03</pdfrwt>
<totfact> 0.93893429E+03</totfact>
</mgrwt>
</event>
<event>
 5    1  0.1139158E+001  0.2789029E+03  0.7818608E-02  0.1096290E+00
          2   -1    0    0  501    0  0.00000000000E+00  0.00000000000E+00  0.10628503921E+04  0.10628503921E+04  0.00000000000E+00 0.  1.
         -2   -1    0    0    0  501 -0.00000000000E+00 -0.00000000000E+00 -0.18296755088E+02  0.18296755088E+02  0.00000000000E+00 0.  1.
         35    2    1    2    0    0  0.00000000000E+00  0.00000000000E+00  0.10445536370E+04  0.10811471472E+04  0.27890294599E+03 0.  0.
         25    1    3    3    0    0 -0.68984081326E+02 -0.45072508033E+01  0.58568865397E+03  0.60183911320E+03  0.12000000000E+03 0.  0.
         25    1    3    3    0    0  0.68984081326E+02  0.45072508033E+01  0.45886498305E+03  0.47930803400E+03  0.12000000000E+03 0.  0.
<mgrwt>
<rscale>  0 0.27890295E+03</rscale>
<asrwt>0</asrwt>
<pdfrwt beam="1">  1        2 0.16351540E+00 0.27890295E+03</pdfrwt>
<pdfrwt beam="2">  1       -2 0.28148862E-02 0.27890295E+03</pdfrwt>
<totfact> 0.11181329E+04</totfact>
</mgrwt>
</event>
<event>
 5    1  0.1139158E+001  0.2750087E+03  0.7818608E-02  0.1098447E+00
          1   -1    0    0  501    0  0.00000000000E+00  0.00000000000E+00  0.13978984727E+04  0.13978984727E+04  0.00000000000E+00 0. -1.
         -1   -1    0    0    0  501 -0.00000000000E+00 -0.00000000000E+00 -0.13525624774E+02  0.13525624774E+02  0.00000000000E+00 0. -1.
         35    2    1    2    0    0  0.00000000000E+00  0.00000000000E+00  0.13843728480E+04  0.14114240975E+04  0.27500872870E+03 0.  0.
         25    1    3    3    0    0  0.34891739138E+02 -0.42956298659E+02  0.88726558631E+03  0.89705233833E+03  0.12000000000E+03 0.  0.
         25    1    3    3    0    0 -0.34891739138E+02  0.42956298659E+02  0.49710726166E+03  0.51437175918E+03  0.12000000000E+03 0.  0.
<mgrwt>
<rscale>  0 0.27500873E+03</rscale>
<asrwt>0</asrwt>
<pdfrwt beam="1">  1        1 0.21506119E+00 0.27500873E+03</pdfrwt>
<pdfrwt beam="2">  1       -1 0.20808665E-02 0.27500873E+03</pdfrwt>
<totfact> 0.54174368E+03</totfact>
</mgrwt>
</event>
<event>
 5    1  0.1139158E+001  0.2737123E+03  0.7818608E-02  0.1099174E+00
          3   -1    0    0  501    0  0.00000000000E+00  0.00000000000E+00  0.37479978840E+03  0.37479978840E+03  0.00000000000E+00 0. -1.
         -3   -1    0    0    0  501 -0.00000000000E+00 -0.00000000000E+00 -0.49972294573E+02  0.49972294573E+02  0.00000000000E+00 0. -1.
         35    2    1    2    0    0  0.00000000000E+00  0.00000000000E+00  0.32482749383E+03  0.42477208298E+03  0.27371229736E+03 0.  0.
         25    1    3    3    0    0  0.84546437356E+01  0.59553501209E+02  0.20380900662E+03  0.24404141387E+03  0.12000000000E+03 0.  0.
         25    1    3    3    0    0 -0.84546437356E+01 -0.59553501209E+02  0.12101848722E+03  0.18073066910E+03  0.12000000000E+03 0.  0.
<mgrwt>
<rscale>  0 0.27371230E+03</rscale>
<asrwt>0</asrwt>
<pdfrwt beam="1">  1        3 0.57661504E-01 0.27371230E+03</pdfrwt>
<pdfrwt beam="2">  1       -3 0.76880456E-02 0.27371230E+03</pdfrwt>
<totfact> 0.86501132E+02</totfact>
</mgrwt>
</event>
<event>
 5    1  0.1139158E+001  0.2748529E+03  0.7818608E-02  0.1098534E+00
         -2   -1    0    0    0  501 -0.00000000000E+00  0.00000000000E+00  0.21829934945E+02  0.21829934945E+02  0.00000000000E+00 0.  1.
          2   -1    0    0  501    0  0.00000000000E+00 -0.00000000000E+00 -0.86514364035E+03  0.86514364035E+03  0.00000000000E+00 0.  1.
         35    2    1    2    0    0  0.00000000000E+00  0.00000000000E+00 -0.84331370540E+03  0.88697357529E+03  0.27485290165E+03 0.  0.
         25    1    3    3    0    0  0.60355714650E+02 -0.19258551259E+02 -0.49179123226E+03  0.51016891341E+03  0.12000000000E+03 0.  0.
         25    1    3    3    0    0 -0.60355714650E+02  0.19258551259E+02 -0.35152247314E+03  0.37680466188E+03  0.12000000000E+03 0.  0.
<mgrwt>
<rscale>  0 0.27485290E+03</rscale>
<asrwt>0</asrwt>
<pdfrwt beam="1">  1        2 0.13309901E+00 0.27485290E+03</pdfrwt>
<pdfrwt beam="2">  1       -2 0.33584518E-02 0.27485290E+03</pdfrwt>
<totfact> 0.11419803E+04</totfact>
</mgrwt>
</event>
<event>
 5    1  0.1139158E+001  0.2754308E+03  0.7818608E-02  0.1098211E+00
         -1   -1    0    0    0  501 -0.00000000000E+00  0.00000000000E+00  0.25250677256E+02  0.25250677256E+02  0.00000000000E+00 0.  1.
          1   -1    0    0  501    0  0.00000000000E+00 -0.00000000000E+00 -0.75109005506E+03  0.75109005506E+03  0.00000000000E+00 0.  1.
         35    2    1    2    0    0  0.00000000000E+00  0.00000000000E+00 -0.72583937780E+03  0.77634073232E+03  0.27543080852E+03 0.  0.
         25    1    3    3    0    0 -0.51240037201E+02  0.31387009442E+01 -0.23908730621E+03  0.27239334215E+03  0.12000000000E+03 0.  0.
         25    1    3    3    0    0  0.51240037201E+02 -0.31387009442E+01 -0.48675207159E+03  0.50394739017E+03  0.12000000000E+03 0.  0.
<mgrwt>
<rscale>  0 0.27543081E+03</rscale>
<asrwt>0</asrwt>
<pdfrwt beam="1">  1        1 0.11555231E+00 0.27543081E+03</pdfrwt>
<pdfrwt beam="2">  1       -1 0.38847199E-02 0.27543081E+03</pdfrwt>
<totfact> 0.65051234E+03</totfact>
</mgrwt>
</event>
<event>
 5    1  0.1139158E+001  0.2748727E+03  0.7818608E-02  0.1098523E+00
          2   -1    0    0  501    0  0.00000000000E+00  0.00000000000E+00  0.26410476614E+03  0.26410476614E+03  0.00000000000E+00 0.  1.
         -2   -1    0    0    0  501 -0.00000000000E+00 -0.00000000000E+00 -0.71519938342E+02  0.71519938342E+02  0.00000000000E+00 0.  1.
         35    2    1    2    0    0  0.00000000000E+00  0.00000000000E+00  0.19258482780E+03  0.33562470449E+03  0.27487274576E+03 0.  0.
         25    1    3    3    0    0 -0.40617933909E+02 -0.49852816928E+02  0.73330880251E+02  0.15463679352E+03  0.12000000000E+03 0.  0.
         25    1    3    3    0    0  0.40617933909E+02  0.49852816928E+02  0.11925394755E+03  0.18098791097E+03  0.12000000000E+03 0.  0.
<mgrwt>
<rscale>  0 0.27487275E+03</rscale>
<asrwt>0</asrwt>
<pdfrwt beam="1">  1        2 0.40631502E-01 0.27487275E+03</pdfrwt>
<pdfrwt beam="2">  1       -2 0.11003068E-01 0.27487275E+03</pdfrwt>
<totfact> 0.70933215E+03</totfact>
</mgrwt>
</event>
<event>
 5    1  0.1139158E+001  0.2752443E+03  0.7818608E-02  0.1098315E+00
          2   -1    0    0  501    0  0.00000000000E+00  0.00000000000E+00  0.12512730298E+03  0.12512730298E+03  0.00000000000E+00 0. -1.
         -2   -1    0    0    0  501 -0.00000000000E+00 -0.00000000000E+00 -0.15136471210E+03  0.15136471210E+03  0.00000000000E+00 0. -1.
         35    2    1    2    0    0  0.00000000000E+00  0.00000000000E+00 -0.26237409117E+02  0.27649201509E+03  0.27524431469E+03 0.  0.
         25    1    3    3    0    0 -0.22091475057E+02 -0.12944550394E+02  0.49487673651E+02  0.13230504336E+03  0.12000000000E+03 0.  0.
         25    1    3    3    0    0  0.22091475057E+02  0.12944550394E+02 -0.75725082768E+02  0.14418697173E+03  0.12000000000E+03 0.  0.
<mgrwt>
<rscale>  0 0.27524431E+03</rscale>
<asrwt>0</asrwt>
<pdfrwt beam="1">  1        2 0.19250354E-01 0.27524431E+03</pdfrwt>
<pdfrwt beam="2">  1       -2 0.23286879E-01 0.27524431E+03</pdfrwt>
<totfact> 0.46491552E+03</totfact>
</mgrwt>
</event>
<event>
 5    1  0.1139158E+001  0.2751372E+03  0.7818608E-02  0.1098375E+00
         -2   -1    0    0    0  501 -0.00000000000E+00  0.00000000000E+00  0.12509543978E+03  0.12509543978E+03  0.00000000000E+00 0. -1.
          2   -1    0    0  501    0  0.00000000000E+00 -0.00000000000E+00 -0.15128539785E+03  0.15128539785E+03  0.00000000000E+00 0. -1.
         35    2    1    2    0    0  0.00000000000E+00  0.00000000000E+00 -0.26189958075E+02  0.27638083763E+03  0.27513715399E+03 0.  0.
         25    1    3    3    0    0 -0.48626977980E+02 -0.43313522193E+02 -0.30037432503E+02  0.13979589244E+03  0.12000000000E+03 0.  0.
         25    1    3    3    0    0  0.48626977980E+02  0.43313522193E+02  0.38474744277E+01  0.13658494519E+03  0.12000000000E+03 0.  0.
<mgrwt>
<rscale>  0 0.27513715E+03</rscale>
<asrwt>0</asrwt>
<pdfrwt beam="1">  1        2 0.23274677E-01 0.27513715E+03</pdfrwt>
<pdfrwt beam="2">  1       -2 0.19245452E-01 0.27513715E+03</pdfrwt>
<totfact> 0.52031390E+03</totfact>
</mgrwt>
</event>
<event>
 5    1  0.1139158E+001  0.2749309E+03  0.7818608E-02  0.1098490E+00
         -1   -1    0    0    0  501 -0.00000000000E+00  0.00000000000E+00  0.12638455276E+02  0.12638455276E+02  0.00000000000E+00 0. -1.
          1   -1    0    0  501    0  0.00000000000E+00 -0.00000000000E+00 -0.14951791882E+04  0.14951791882E+04  0.00000000000E+00 0. -1.
         35    2    1    2    0    0  0.00000000000E+00  0.00000000000E+00 -0.14825407330E+04  0.15078176435E+04  0.27493093896E+03 0.  0.
         25    1    3    3    0    0 -0.22160832918E+02  0.56944806864E+02 -0.89275580815E+03  0.90285477600E+03  0.12000000000E+03 0.  0.
         25    1    3    3    0    0  0.22160832918E+02 -0.56944806864E+02 -0.58978492480E+03  0.60496286751E+03  0.12000000000E+03 0.  0.
<mgrwt>
<rscale>  0 0.27493094E+03</rscale>
<asrwt>0</asrwt>
<pdfrwt beam="1">  1        1 0.23002773E+00 0.27493094E+03</pdfrwt>
<pdfrwt beam="2">  1       -1 0.19443764E-02 0.27493094E+03</pdfrwt>
<totfact> 0.51517528E+03</totfact>
</mgrwt>
</event>
<event>
 5    1  0.1139158E+001  0.2745216E+03  0.7818608E-02  0.1098719E+00
          2   -1    0    0  501    0  0.00000000000E+00  0.00000000000E+00  0.29508286639E+03  0.29508286639E+03  0.00000000000E+00 0.  1.
         -2   -1    0    0    0  501 -0.00000000000E+00 -0.00000000000E+00 -0.63848258807E+02  0.63848258807E+02  0.00000000000E+00 0.  1.
         35    2    1    2    0    0  0.00000000000E+00  0.00000000000E+00  0.23123460758E+03  0.35893112520E+03  0.27452160004E+03 0.  0.
         25    1    3    3    0    0  0.16298758045E+02  0.51391059929E+02  0.64410914114E+02  0.14647681186E+03  0.12000000000E+03 0.  0.
         25    1    3    3    0    0 -0.16298758045E+02 -0.51391059929E+02  0.16682369347E+03  0.21245431334E+03  0.12000000000E+03 0.  0.
<mgrwt>
<rscale>  0 0.27452160E+03</rscale>
<asrwt>0</asrwt>
<pdfrwt beam="1">  1        2 0.45397363E-01 0.27452160E+03</pdfrwt>
<pdfrwt beam="2">  1       -2 0.98228092E-02 0.27452160E+03</pdfrwt>
<totfact> 0.75436236E+03</totfact>
</mgrwt>
</event>
<event>
 5    1  0.1139158E+001  0.2739891E+03  0.7818608E-02  0.1099018E+00
          1   -1    0    0  501    0  0.00000000000E+00  0.00000000000E+00  0.11524530508E+04  0.11524530508E+04  0.00000000000E+00 0.  1.
         -1   -1    0    0    0  501 -0.00000000000E+00 -0.00000000000E+00 -0.16284832598E+02  0.16284832598E+02  0.00000000000E+00 0.  1.
         35    2    1    2    0    0  0.00000000000E+00  0.00000000000E+00  0.11361682182E+04  0.11687378834E+04  0.27398908745E+03 0.  0.
         25    1    3    3    0    0  0.59741322615E+02 -0.23669400598E+02  0.63392415946E+03  0.64837420221E+03  0.12000000000E+03 0.  0.
         25    1    3    3    0    0 -0.59741322615E+02  0.23669400598E+02  0.50224405875E+03  0.52036368119E+03  0.12000000000E+03 0.  0.
<mgrwt>
<rscale>  0 0.27398909E+03</rscale>
<asrwt>0</asrwt>
<pdfrwt beam="1">  1        1 0.17730041E+00 0.27398909E+03</pdfrwt>
<pdfrwt beam="2">  1       -1 0.25053598E-02 0.27398909E+03</pdfrwt>
<totfact> 0.60883662E+03</totfact>
</mgrwt>
</event>
<event>
 5    1  0.1139158E+001  0.2750593E+03  0.7818608E-02  0.1098418E+00
         -2   -1    0    0    0  501 -0.00000000000E+00  0.00000000000E+00  0.18385587074E+02  0.18385587074E+02  0.00000000000E+00 0. -1.
          2   -1    0    0  501    0  0.00000000000E+00 -0.00000000000E+00 -0.10287623690E+04  0.10287623690E+04  0.00000000000E+00 0. -1.
         35    2    1    2    0    0  0.00000000000E+00  0.00000000000E+00 -0.10103767819E+04  0.10471479561E+04  0.27505926717E+03 0.  0.
         25    1    3    3    0    0 -0.56654683105E+02 -0.19521751897E+02 -0.62088258115E+03  0.63520550335E+03  0.12000000000E+03 0.  0.
         25    1    3    3    0    0  0.56654683105E+02  0.19521751897E+02 -0.38949420077E+03  0.41194245272E+03  0.12000000000E+03 0.  0.
<mgrwt>
<rscale>  0 0.27505927E+03</rscale>
<asrwt>0</asrwt>
<pdfrwt beam="1">  1        2 0.15827112E+00 0.27505927E+03</pdfrwt>
<pdfrwt beam="2">  1       -2 0.28285521E-02 0.27505927E+03</pdfrwt>
<totfact> 0.11631941E+04</totfact>
</mgrwt>
</event>
<event>
 5    1  0.1139158E+001  0.2742001E+03  0.7818608E-02  0.1098900E+00
          4   -1    0    0  501    0  0.00000000000E+00  0.00000000000E+00  0.53810230030E+03  0.53810230030E+03  0.00000000000E+00 0.  1.
         -4   -1    0    0    0  501 -0.00000000000E+00 -0.00000000000E+00 -0.34930958657E+02  0.34930958657E+02  0.00000000000E+00 0.  1.
         35    2    1    2    0    0  0.00000000000E+00  0.00000000000E+00  0.50317134164E+03  0.57303325896E+03  0.27420014008E+03 0.  0.
         25    1    3    3    0    0 -0.17003102956E+02  0.57631422606E+02  0.19299781108E+03  0.23507156669E+03  0.12000000000E+03 0.  0.
         25    1    3    3    0    0  0.17003102956E+02 -0.57631422606E+02  0.31017353056E+03  0.33796169227E+03  0.12000000000E+03 0.  0.
<mgrwt>
<rscale>  0 0.27420014E+03</rscale>
<asrwt>0</asrwt>
<pdfrwt beam="1">  1        4 0.82784963E-01 0.27420014E+03</pdfrwt>
<pdfrwt beam="2">  1       -4 0.53739940E-02 0.27420014E+03</pdfrwt>
<totfact> 0.52340602E+02</totfact>
</mgrwt>
</event>
<event>
 5    1  0.1139158E+001  0.2728984E+03  0.7818608E-02  0.1099632E+00
         -2   -1    0    0    0  501 -0.00000000000E+00  0.00000000000E+00  0.88602366647E+01  0.88602366647E+01  0.00000000000E+00 0. -1.
          2   -1    0    0  501    0  0.00000000000E+00 -0.00000000000E+00 -0.21013418789E+04  0.21013418789E+04  0.00000000000E+00 0. -1.
         35    2    1    2    0    0  0.00000000000E+00  0.00000000000E+00 -0.20924816422E+04  0.21102021155E+04  0.27289841597E+03 0.  0.
         25    1    3    3    0    0 -0.42838005063E+02  0.33577366370E+02 -0.77221449004E+03  0.78337586945E+03  0.12000000000E+03 0.  0.
         25    1    3    3    0    0  0.42838005063E+02 -0.33577366370E+02 -0.13202671522E+04  0.13268262461E+04  0.12000000000E+03 0.  0.
<mgrwt>
<rscale>  0 0.27289842E+03</rscale>
<asrwt>0</asrwt>
<pdfrwt beam="1">  1        2 0.32328366E+00 0.27289842E+03</pdfrwt>
<pdfrwt beam="2">  1       -2 0.13631121E-02 0.27289842E+03</pdfrwt>
<totfact> 0.89139576E+03</totfact>
</mgrwt>
</event>
<event>
 5    1  0.1139158E+001  0.2755074E+03  0.7818608E-02  0.1098168E+00
          1   -1    0    0  501    0  0.00000000000E+00  0.00000000000E+00  0.24867953939E+04  0.24867953939E+04  0.00000000000E+00 0.  1.
         -1   -1    0    0    0  501 -0.00000000000E+00 -0.00000000000E+00 -0.76307351427E+01  0.76307351427E+01  0.00000000000E+00 0.  1.
         35    2    1    2    0    0  0.00000000000E+00  0.00000000000E+00  0.24791646588E+04  0.24944261291E+04  0.27550736473E+03 0.  0.
         25    1    3    3    0    0 -0.60765544653E+01 -0.65707546717E+02  0.11047817762E+04  0.11132372520E+04  0.12000000000E+03 0.  0.
         25    1    3    3    0    0  0.60765544653E+01  0.65707546717E+02  0.13743828825E+04  0.13811888770E+04  0.12000000000E+03 0.  0.
<mgrwt>
<rscale>  0 0.27550736E+03</rscale>
<asrwt>0</asrwt>
<pdfrwt beam="1">  1        1 0.38258326E+00 0.27550736E+03</pdfrwt>
<pdfrwt beam="2">  1       -1 0.11739612E-02 0.27550736E+03</pdfrwt>
<totfact> 0.24121143E+03</totfact>
</mgrwt>
</event>
<event>
 5    1  0.1139158E+001  0.2749366E+03  0.7818608E-02  0.1098487E+00
          2   -1    0    0  501    0  0.00000000000E+00  0.00000000000E+00  0.89234431643E+03  0.89234431643E+03  0.00000000000E+00 0.  1.
         -2   -1    0    0    0  501 -0.00000000000E+00 -0.00000000000E+00 -0.21177397252E+02  0.21177397252E+02  0.00000000000E+00 0.  1.
         35    2    1    2    0    0  0.00000000000E+00  0.00000000000E+00  0.87116691918E+03  0.91352171368E+03  0.27493657505E+03 0.  0.
         25    1    3    3    0    0 -0.27187566570E+02  0.48681448360E+02  0.31177320356E+03  0.33869097662E+03  0.12000000000E+03 0.  0.
         25    1    3    3    0    0  0.27187566570E+02 -0.48681448360E+02  0.55939371562E+03  0.57483073706E+03  0.12000000000E+03 0.  0.
<mgrwt>
<rscale>  0 0.27493658E+03</rscale>
<asrwt>0</asrwt>
<pdfrwt beam="1">  1        2 0.13728371E+00 0.27493658E+03</pdfrwt>
<pdfrwt beam="2">  1       -2 0.32580618E-02 0.27493658E+03</pdfrwt>
<totfact> 0.11469439E+04</totfact>
</mgrwt>
</event>
<event>
 5    1  0.1139158E+001  0.2748110E+03  0.7818608E-02  0.1098557E+00
         -4   -1    0    0    0  501 -0.00000000000E+00  0.00000000000E+00  0.94123372908E+02  0.94123372908E+02  0.00000000000E+00 0.  1.
          4   -1    0    0  501    0  0.00000000000E+00 -0.00000000000E+00 -0.20059069908E+03  0.20059069908E+03  0.00000000000E+00 0.  1.
         35    2    1    2    0    0  0.00000000000E+00  0.00000000000E+00 -0.10646732617E+03  0.29471407199E+03  0.27481101267E+03 0.  0.
         25    1    3    3    0    0  0.66669532110E+02 -0.16138349612E+01 -0.47087800628E+02  0.14513680423E+03  0.12000000000E+03 0.  0.
         25    1    3    3    0    0 -0.66669532110E+02  0.16138349612E+01 -0.59379525545E+02  0.14957726775E+03  0.12000000000E+03 0.  0.
<mgrwt>
<rscale>  0 0.27481101E+03</rscale>
<asrwt>0</asrwt>
<pdfrwt beam="1">  1        4 0.30860107E-01 0.27481101E+03</pdfrwt>
<pdfrwt beam="2">  1       -4 0.14480519E-01 0.27481101E+03</pdfrwt>
<totfact> 0.75747775E+02</totfact>
</mgrwt>
</event>
<event>
 5    1  0.1139158E+001  0.2745062E+03  0.7818608E-02  0.1098728E+00
         -4   -1    0    0    0  501 -0.00000000000E+00  0.00000000000E+00  0.10884091082E+04  0.10884091082E+04  0.00000000000E+00 0.  1.
          4   -1    0    0  501    0  0.00000000000E+00 -0.00000000000E+00 -0.17308209309E+02  0.17308209309E+02  0.00000000000E+00 0.  1.
         35    2    1    2    0    0  0.00000000000E+00  0.00000000000E+00  0.10711008989E+04  0.11057173175E+04  0.27450619416E+03 0.  0.
         25    1    3    3    0    0 -0.55180904093E+02 -0.35989258681E+02  0.49562346497E+03  0.51418165851E+03  0.12000000000E+03 0.  0.
         25    1    3    3    0    0  0.55180904093E+02  0.35989258681E+02  0.57547743389E+03  0.59153565897E+03  0.12000000000E+03 0.  0.
<mgrwt>
<rscale>  0 0.27450619E+03</rscale>
<asrwt>0</asrwt>
<pdfrwt beam="1">  1        4 0.26628023E-02 0.27450619E+03</pdfrwt>
<pdfrwt beam="2">  1       -4 0.16744750E+00 0.27450619E+03</pdfrwt>
<totfact> 0.28796431E+02</totfact>
</mgrwt>
</event>
<event>
 4    1  0.1139158E+001  0.2422086E+03  0.7818608E-02  0.1118330E+00
          1   -1    0    0  501    0  0.00000000000E+00  0.00000000000E+00  0.10027395568E+04  0.10027395568E+04  0.00000000000E+00 0.  1.
         -1   -1    0    0    0  501 -0.00000000000E+00 -0.00000000000E+00 -0.14626180997E+02  0.14626180997E+02  0.00000000000E+00 0.  1.
         25    1    1    2    0    0 -0.10450740029E+02 -0.89351717862E+01  0.45715195059E+03  0.47283925513E+03  0.12000000000E+03 0.  0.
         25    1    1    2    0    0  0.10450740029E+02  0.89351717862E+01  0.53096142518E+03  0.54452648264E+03  0.12000000000E+03 0.  0.
<mgrwt>
<rscale>  0 0.24220859E+03</rscale>
<asrwt>0</asrwt>
<pdfrwt beam="1">  1        1 0.15426757E+00 0.24220859E+03</pdfrwt>
<pdfrwt beam="2">  1       -1 0.22501825E-02 0.24220859E+03</pdfrwt>
<totfact> 0.91233083E+03</totfact>
</mgrwt>
</event>
<event>
 5    1  0.1139158E+001  0.2743189E+03  0.7818608E-02  0.1098833E+00
         -3   -1    0    0    0  501 -0.00000000000E+00  0.00000000000E+00  0.20182192213E+03  0.20182192213E+03  0.00000000000E+00 0.  1.
          3   -1    0    0  501    0  0.00000000000E+00 -0.00000000000E+00 -0.93214421365E+02  0.93214421365E+02  0.00000000000E+00 0.  1.
         35    2    1    2    0    0  0.00000000000E+00  0.00000000000E+00  0.10860750077E+03  0.29503634350E+03  0.27431889246E+03 0.  0.
         25    1    3    3    0    0 -0.38200073546E+02  0.50853709351E+02  0.33689352815E+02  0.13992968901E+03  0.12000000000E+03 0.  0.
         25    1    3    3    0    0  0.38200073546E+02 -0.50853709351E+02  0.74918147954E+02  0.15510665449E+03  0.12000000000E+03 0.  0.
<mgrwt>
<rscale>  0 0.27431889E+03</rscale>
<asrwt>0</asrwt>
<pdfrwt beam="1">  1        3 0.14340680E-01 0.27431889E+03</pdfrwt>
<pdfrwt beam="2">  1       -3 0.31049526E-01 0.27431889E+03</pdfrwt>
<totfact> 0.10265313E+03</totfact>
</mgrwt>
</event>
<event>
 5    1  0.1139158E+001  0.2753078E+03  0.7818608E-02  0.1098280E+00
         -2   -1    0    0    0  501 -0.00000000000E+00  0.00000000000E+00  0.23322660505E+03  0.23322660505E+03  0.00000000000E+00 0.  1.
          2   -1    0    0  501    0  0.00000000000E+00 -0.00000000000E+00 -0.81245453050E+02  0.81245453050E+02  0.00000000000E+00 0.  1.
         35    2    1    2    0    0  0.00000000000E+00  0.00000000000E+00  0.15198115200E+03  0.31447205810E+03  0.27530783636E+03 0.  0.
         25    1    3    3    0    0 -0.51741737808E+02  0.41558555322E+02  0.89710980514E+02  0.16386696121E+03  0.12000000000E+03 0.  0.
         25    1    3    3    0    0  0.51741737808E+02 -0.41558555322E+02  0.62270171484E+02  0.15060509689E+03  0.12000000000E+03 0.  0.
<mgrwt>
<rscale>  0 0.27530784E+03</rscale>
<asrwt>0</asrwt>
<pdfrwt beam="1">  1        2 0.12499301E-01 0.27530784E+03</pdfrwt>
<pdfrwt beam="2">  1       -2 0.35881016E-01 0.27530784E+03</pdfrwt>
<totfact> 0.35454364E+03</totfact>
</mgrwt>
</event>
<event>
 5    1  0.1139158E+001  0.2751589E+03  0.7818608E-02  0.1098363E+00
          2   -1    0    0  501    0  0.00000000000E+00  0.00000000000E+00  0.10149178808E+04  0.10149178808E+04  0.00000000000E+00 0.  1.
         -2   -1    0    0    0  501 -0.00000000000E+00 -0.00000000000E+00 -0.18649884169E+02  0.18649884169E+02  0.00000000000E+00 0.  1.
         35    2    1    2    0    0  0.00000000000E+00  0.00000000000E+00  0.99626799660E+03  0.10335677649E+04  0.27515886988E+03 0.  0.
         25    1    3    3    0    0  0.50973172350E+02 -0.23978575528E+02  0.63639617067E+03  0.65005639942E+03  0.12000000000E+03 0.  0.
         25    1    3    3    0    0 -0.50973172350E+02  0.23978575528E+02  0.35987182594E+03  0.38351136552E+03  0.12000000000E+03 0.  0.
<mgrwt>
<rscale>  0 0.27515887E+03</rscale>
<asrwt>0</asrwt>
<pdfrwt beam="1">  1        2 0.15614117E+00 0.27515887E+03</pdfrwt>
<pdfrwt beam="2">  1       -2 0.28692137E-02 0.27515887E+03</pdfrwt>
<totfact> 0.11610321E+04</totfact>
</mgrwt>
</event>
<event>
 5    1  0.1139158E+001  0.2692914E+03  0.7818608E-02  0.1101686E+00
          2   -1    0    0  501    0  0.00000000000E+00  0.00000000000E+00  0.35450636797E+04  0.35450636797E+04  0.00000000000E+00 0.  1.
         -2   -1    0    0    0  501 -0.00000000000E+00 -0.00000000000E+00 -0.51140023075E+01  0.51140023075E+01  0.00000000000E+00 0.  1.
         35    2    1    2    0    0  0.00000000000E+00  0.00000000000E+00  0.35399496774E+04  0.35501776820E+04  0.26929139487E+03 0.  0.
         25    1    3    3    0    0 -0.30103697704E+02 -0.42660284226E+02  0.13523851083E+04  0.13587021799E+04  0.12000000000E+03 0.  0.
         25    1    3    3    0    0  0.30103697704E+02  0.42660284226E+02  0.21875645691E+04  0.21914755021E+04  0.12000000000E+03 0.  0.
<mgrwt>
<rscale>  0 0.26929139E+03</rscale>
<asrwt>0</asrwt>
<pdfrwt beam="1">  1        2 0.54539245E+00 0.26929139E+03</pdfrwt>
<pdfrwt beam="2">  1       -2 0.78677242E-03 0.26929139E+03</pdfrwt>
<totfact> 0.28598479E+03</totfact>
</mgrwt>
</event>
<event>
 5    1  0.1139158E+001  0.2750689E+03  0.7818608E-02  0.1098413E+00
         -2   -1    0    0    0  501 -0.00000000000E+00  0.00000000000E+00  0.49008732746E+02  0.49008732746E+02  0.00000000000E+00 0.  1.
          2   -1    0    0  501    0  0.00000000000E+00 -0.00000000000E+00 -0.38596634423E+03  0.38596634423E+03  0.00000000000E+00 0.  1.
         35    2    1    2    0    0  0.00000000000E+00  0.00000000000E+00 -0.33695761148E+03  0.43497507697E+03  0.27506887438E+03 0.  0.
         25    1    3    3    0    0 -0.46523945117E+02  0.24433718799E+02 -0.10224692348E+03  0.16618037623E+03  0.12000000000E+03 0.  0.
         25    1    3    3    0    0  0.46523945117E+02 -0.24433718799E+02 -0.23471068800E+03  0.26879470074E+03  0.12000000000E+03 0.  0.
<mgrwt>
<rscale>  0 0.27506887E+03</rscale>
<asrwt>0</asrwt>
<pdfrwt beam="1">  1        2 0.59379439E-01 0.27506887E+03</pdfrwt>
<pdfrwt beam="2">  1       -2 0.75398049E-02 0.27506887E+03</pdfrwt>
<totfact> 0.85569754E+03</totfact>
</mgrwt>
</event>
<event>
 5    1  0.1139158E+001  0.2749985E+03  0.7818608E-02  0.1098452E+00
          1   -1    0    0  501    0  0.00000000000E+00  0.00000000000E+00  0.11513978999E+03  0.11513978999E+03  0.00000000000E+00 0.  1.
         -1   -1    0    0    0  501 -0.00000000000E+00 -0.00000000000E+00 -0.16420083564E+03  0.16420083564E+03  0.00000000000E+00 0.  1.
         35    2    1    2    0    0  0.00000000000E+00  0.00000000000E+00 -0.49061045651E+02  0.27934062562E+03  0.27499854349E+03 0.  0.
         25    1    3    3    0    0 -0.41584303397E+02 -0.52291325494E+02 -0.31145856731E+02  0.14083217460E+03  0.12000000000E+03 0.  0.
         25    1    3    3    0    0  0.41584303397E+02  0.52291325494E+02 -0.17915188920E+02  0.13850845102E+03  0.12000000000E+03 0.  0.
<mgrwt>
<rscale>  0 0.27499854E+03</rscale>
<asrwt>0</asrwt>
<pdfrwt beam="1">  1        1 0.17713814E-01 0.27499854E+03</pdfrwt>
<pdfrwt beam="2">  1       -1 0.25261667E-01 0.27499854E+03</pdfrwt>
<totfact> 0.40705551E+03</totfact>
</mgrwt>
</event>
<event>
 5    1  0.1139158E+001  0.2750492E+03  0.7818608E-02  0.1098424E+00
         -2   -1    0    0    0  501 -0.00000000000E+00  0.00000000000E+00  0.28078681634E+02  0.28078681634E+02  0.00000000000E+00 0.  1.
          2   -1    0    0  501    0  0.00000000000E+00 -0.00000000000E+00 -0.67357197873E+03  0.67357197873E+03  0.00000000000E+00 0.  1.
         35    2    1    2    0    0  0.00000000000E+00  0.00000000000E+00 -0.64549329710E+03  0.70165066036E+03  0.27504918214E+03 0.  0.
         25    1    3    3    0    0 -0.68629500220E+01 -0.84997489642E+01 -0.15365421831E+03  0.19526639399E+03  0.12000000000E+03 0.  0.
         25    1    3    3    0    0  0.68629500220E+01  0.84997489642E+01 -0.49183907878E+03  0.50638426638E+03  0.12000000000E+03 0.  0.
<mgrwt>
<rscale>  0 0.27504918E+03</rscale>
<asrwt>0</asrwt>
<pdfrwt beam="1">  1        2 0.10362646E+00 0.27504918E+03</pdfrwt>
<pdfrwt beam="2">  1       -2 0.43197972E-02 0.27504918E+03</pdfrwt>
<totfact> 0.10707618E+04</totfact>
</mgrwt>
</event>
<event>
 5    1  0.1139158E+001  0.2754310E+03  0.7818608E-02  0.1098211E+00
         -1   -1    0    0    0  501 -0.00000000000E+00  0.00000000000E+00  0.17370379313E+02  0.17370379313E+02  0.00000000000E+00 0.  1.
          1   -1    0    0  501    0  0.00000000000E+00 -0.00000000000E+00 -0.10918333179E+04  0.10918333179E+04  0.00000000000E+00 0.  1.
         35    2    1    2    0    0  0.00000000000E+00  0.00000000000E+00 -0.10744629386E+04  0.11092036972E+04  0.27543099955E+03 0.  0.
         25    1    3    3    0    0 -0.31896692116E+02 -0.56418755229E+02 -0.61417903268E+03  0.62913937970E+03  0.12000000000E+03 0.  0.
         25    1    3    3    0    0  0.31896692116E+02  0.56418755229E+02 -0.46028390589E+03  0.48006431750E+03  0.12000000000E+03 0.  0.
<mgrwt>
<rscale>  0 0.27543100E+03</rscale>
<asrwt>0</asrwt>
<pdfrwt beam="1">  1        1 0.16797439E+00 0.27543100E+03</pdfrwt>
<pdfrwt beam="2">  1       -1 0.26723654E-02 0.27543100E+03</pdfrwt>
<totfact> 0.61196028E+03</totfact>
</mgrwt>
</event>
<event>
 5    1  0.1139158E+001  0.2750474E+03  0.7818608E-02  0.1098425E+00
          1   -1    0    0  501    0  0.00000000000E+00  0.00000000000E+00  0.46305242672E+02  0.46305242672E+02  0.00000000000E+00 0.  1.
         -1   -1    0    0    0  501 -0.00000000000E+00 -0.00000000000E+00 -0.40843680751E+03  0.40843680751E+03  0.00000000000E+00 0.  1.
         35    2    1    2    0    0  0.00000000000E+00  0.00000000000E+00 -0.36213156484E+03  0.45474205019E+03  0.27504738129E+03 0.  0.
         25    1    3    3    0    0 -0.11141785287E+02  0.52344977302E+01 -0.29025051240E+03  0.31431974054E+03  0.12000000000E+03 0.  0.
         25    1    3    3    0    0  0.11141785287E+02 -0.52344977302E+01 -0.71881052442E+02  0.14042230965E+03  0.12000000000E+03 0.  0.
<mgrwt>
<rscale>  0 0.27504738E+03</rscale>
<asrwt>0</asrwt>
<pdfrwt beam="1">  1        1 0.71238837E-02 0.27504738E+03</pdfrwt>
<pdfrwt beam="2">  1       -1 0.62836430E-01 0.27504738E+03</pdfrwt>
<totfact> 0.27003922E+03</totfact>
</mgrwt>
</event>
<event>
 5    1  0.1139158E+001  0.2748333E+03  0.7818608E-02  0.1098545E+00
          1   -1    0    0  501    0  0.00000000000E+00  0.00000000000E+00  0.10420761642E+02  0.10420761642E+02  0.00000000000E+00 0. -1.
         -1   -1    0    0    0  501 -0.00000000000E+00 -0.00000000000E+00 -0.18120884539E+04  0.18120884539E+04  0.00000000000E+00 0. -1.
         35    2    1    2    0    0  0.00000000000E+00  0.00000000000E+00 -0.18016676922E+04  0.18225092155E+04  0.27483334479E+03 0.  0.
         25    1    3    3    0    0  0.32196224127E+02  0.42019020448E+01 -0.12891537842E+04  0.12951338665E+04  0.12000000000E+03 0.  0.
         25    1    3    3    0    0 -0.32196224127E+02 -0.42019020448E+01 -0.51251390806E+03  0.52737534905E+03  0.12000000000E+03 0.  0.
<mgrwt>
<rscale>  0 0.27483334E+03</rscale>
<asrwt>0</asrwt>
<pdfrwt beam="1">  1        1 0.16031952E-02 0.27483334E+03</pdfrwt>
<pdfrwt beam="2">  1       -1 0.27878265E+00 0.27483334E+03</pdfrwt>
<totfact> 0.43370911E+02</totfact>
</mgrwt>
</event>
<event>
 5    1  0.1139158E+001  0.2752815E+03  0.7818608E-02  0.1098294E+00
         -2   -1    0    0    0  501 -0.00000000000E+00  0.00000000000E+00  0.74425580581E+01  0.74425580581E+01  0.00000000000E+00 0. -1.
          2   -1    0    0  501    0  0.00000000000E+00 -0.00000000000E+00 -0.25454925215E+04  0.25454925215E+04  0.00000000000E+00 0. -1.
         35    2    1    2    0    0  0.00000000000E+00  0.00000000000E+00 -0.25380499634E+04  0.25529350795E+04  0.27528149867E+03 0.  0.
         25    1    3    3    0    0  0.50343916303E+02  0.43815958909E+02 -0.11807386935E+04  0.11886960126E+04  0.12000000000E+03 0.  0.
         25    1    3    3    0    0 -0.50343916303E+02 -0.43815958909E+02 -0.13573112699E+04  0.13642390669E+04  0.12000000000E+03 0.  0.
<mgrwt>
<rscale>  0 0.27528150E+03</rscale>
<asrwt>0</asrwt>
<pdfrwt beam="1">  1        2 0.39161429E+00 0.27528150E+03</pdfrwt>
<pdfrwt beam="2">  1       -2 0.11450088E-02 0.27528150E+03</pdfrwt>
<totfact> 0.66281299E+03</totfact>
</mgrwt>
</event>
<event>
 5    1  0.1139158E+001  0.2754442E+03  0.7818608E-02  0.1098204E+00
         -2   -1    0    0    0  501 -0.00000000000E+00  0.00000000000E+00  0.53201391973E+02  0.53201391973E+02  0.00000000000E+00 0. -1.
          2   -1    0    0  501    0  0.00000000000E+00 -0.00000000000E+00 -0.35652020680E+03  0.35652020680E+03  0.00000000000E+00 0. -1.
         35    2    1    2    0    0  0.00000000000E+00  0.00000000000E+00 -0.30331881482E+03  0.40972159877E+03  0.27544415963E+03 0.  0.
         25    1    3    3    0    0  0.11776749159E+02 -0.66438761185E+02 -0.14598145282E+03  0.20065738306E+03  0.12000000000E+03 0.  0.
         25    1    3    3    0    0 -0.11776749159E+02  0.66438761185E+02 -0.15733736201E+03  0.20906421571E+03  0.12000000000E+03 0.  0.
<mgrwt>
<rscale>  0 0.27544416E+03</rscale>
<asrwt>0</asrwt>
<pdfrwt beam="1">  1        2 0.54849265E-01 0.27544416E+03</pdfrwt>
<pdfrwt beam="2">  1       -2 0.81848292E-02 0.27544416E+03</pdfrwt>
<totfact> 0.82036660E+03</totfact>
</mgrwt>
</event>
<event>
 5    1  0.1139158E+001  0.2749569E+03  0.7818608E-02  0.1098476E+00
          1   -1    0    0  501    0  0.00000000000E+00  0.00000000000E+00  0.37073242854E+03  0.37073242854E+03  0.00000000000E+00 0. -1.
         -1   -1    0    0    0  501 -0.00000000000E+00 -0.00000000000E+00 -0.50981027768E+02  0.50981027768E+02  0.00000000000E+00 0. -1.
         35    2    1    2    0    0  0.00000000000E+00  0.00000000000E+00  0.31975140077E+03  0.42171345631E+03  0.27495687105E+03 0.  0.
         25    1    3    3    0    0 -0.40933632996E+02  0.21783321448E+02  0.23423057319E+03  0.26723404877E+03  0.12000000000E+03 0.  0.
         25    1    3    3    0    0  0.40933632996E+02 -0.21783321448E+02  0.85520827577E+02  0.15447940754E+03  0.12000000000E+03 0.  0.
<mgrwt>
<rscale>  0 0.27495687E+03</rscale>
<asrwt>0</asrwt>
<pdfrwt beam="1">  1        1 0.57035756E-01 0.27495687E+03</pdfrwt>
<pdfrwt beam="2">  1       -1 0.78432353E-02 0.27495687E+03</pdfrwt>
<totfact> 0.58966751E+03</totfact>
</mgrwt>
</event>
<event>
 5    1  0.1139158E+001  0.2746061E+03  0.7818608E-02  0.1098672E+00
          1   -1    0    0  501    0  0.00000000000E+00  0.00000000000E+00  0.40033348216E+03  0.40033348216E+03  0.00000000000E+00 0.  1.
         -1   -1    0    0    0  501 -0.00000000000E+00 -0.00000000000E+00 -0.47091058226E+02  0.47091058226E+02  0.00000000000E+00 0.  1.
         35    2    1    2    0    0  0.00000000000E+00  0.00000000000E+00  0.35324242393E+03  0.44742454038E+03  0.27460609839E+03 0.  0.
         25    1    3    3    0    0 -0.12060914267E+01  0.98712797502E+01  0.28412294225E+03  0.30858506628E+03  0.12000000000E+03 0.  0.
         25    1    3    3    0    0  0.12060914267E+01 -0.98712797502E+01  0.69119481684E+02  0.13883947410E+03  0.12000000000E+03 0.  0.
<mgrwt>
<rscale>  0 0.27460610E+03</rscale>
<asrwt>0</asrwt>
<pdfrwt beam="1">  1        1 0.61589764E-01 0.27460610E+03</pdfrwt>
<pdfrwt beam="2">  1       -1 0.72447784E-02 0.27460610E+03</pdfrwt>
<totfact> 0.60320744E+03</totfact>
</mgrwt>
</event>
<event>
 5    1  0.1139158E+001  0.2735705E+03  0.7818608E-02  0.1099253E+00
         -2   -1    0    0    0  501 -0.00000000000E+00  0.00000000000E+00  0.59653935622E+03  0.59653935622E+03  0.00000000000E+00 0.  1.
          2   -1    0    0  501    0  0.00000000000E+00 -0.00000000000E+00 -0.31364577565E+02  0.31364577565E+02  0.00000000000E+00 0.  1.
         35    2    1    2    0    0  0.00000000000E+00  0.00000000000E+00  0.56517477865E+03  0.62790393378E+03  0.27357050213E+03 0.  0.
         25    1    3    3    0    0  0.95501167262E+01 -0.16023208002E+02  0.42706323863E+03  0.44399432172E+03  0.12000000000E+03 0.  0.
         25    1    3    3    0    0 -0.95501167262E+01  0.16023208002E+02  0.13811154002E+03  0.18390961207E+03  0.12000000000E+03 0.  0.
<mgrwt>
<rscale>  0 0.27357050E+03</rscale>
<asrwt>0</asrwt>
<pdfrwt beam="1">  1        2 0.48253201E-02 0.27357050E+03</pdfrwt>
<pdfrwt beam="2">  1       -2 0.91775277E-01 0.27357050E+03</pdfrwt>
<totfact> 0.17209635E+03</totfact>
</mgrwt>
</event>
<event>
 5    1  0.1139158E+001  0.2743593E+03  0.7818608E-02  0.1098810E+00
         -1   -1    0    0    0  501 -0.00000000000E+00  0.00000000000E+00  0.32131922350E+03  0.32131922350E+03  0.00000000000E+00 0. -1.
          1   -1    0    0  501    0  0.00000000000E+00 -0.00000000000E+00 -0.58565618311E+02  0.58565618311E+02  0.00000000000E+00 0. -1.
         35    2    1    2    0    0  0.00000000000E+00  0.00000000000E+00  0.26275360518E+03  0.37988484181E+03  0.27435931914E+03 0.  0.
         25    1    3    3    0    0 -0.62636918089E+02 -0.13181384846E+02  0.10656431090E+03  0.17278045251E+03  0.12000000000E+03 0.  0.
         25    1    3    3    0    0  0.62636918089E+02  0.13181384846E+02  0.15618929429E+03  0.20710438929E+03  0.12000000000E+03 0.  0.
<mgrwt>
<rscale>  0 0.27435932E+03</rscale>
<asrwt>0</asrwt>
<pdfrwt beam="1">  1        1 0.90100953E-02 0.27435932E+03</pdfrwt>
<pdfrwt beam="2">  1       -1 0.49433726E-01 0.27435932E+03</pdfrwt>
<totfact> 0.30897778E+03</totfact>
</mgrwt>
</event>
<event>
 5    1  0.1139158E+001  0.2735298E+03  0.7818608E-02  0.1099276E+00
         -1   -1    0    0    0  501 -0.00000000000E+00  0.00000000000E+00  0.16982415397E+03  0.16982415397E+03  0.00000000000E+00 0.  1.
          1   -1    0    0  501    0  0.00000000000E+00 -0.00000000000E+00 -0.11014117242E+03  0.11014117242E+03  0.00000000000E+00 0.  1.
         35    2    1    2    0    0  0.00000000000E+00  0.00000000000E+00  0.59682981550E+02  0.27996532640E+03  0.27352975285E+03 0.  0.
         25    1    3    3    0    0  0.40297345204E+02 -0.50148769136E+02  0.16659963781E+02  0.13717262653E+03  0.12000000000E+03 0.  0.
         25    1    3    3    0    0 -0.40297345204E+02  0.50148769136E+02  0.43023017769E+02  0.14279269986E+03  0.12000000000E+03 0.  0.
<mgrwt>
<rscale>  0 0.27352975E+03</rscale>
<asrwt>0</asrwt>
<pdfrwt beam="1">  1        1 0.16944796E-01 0.27352975E+03</pdfrwt>
<pdfrwt beam="2">  1       -1 0.26126793E-01 0.27352975E+03</pdfrwt>
<totfact> 0.40761535E+03</totfact>
</mgrwt>
</event>
<event>
 5    1  0.1139158E+001  0.2751121E+03  0.7818608E-02  0.1098389E+00
          2   -1    0    0  501    0  0.00000000000E+00  0.00000000000E+00  0.87283735791E+02  0.87283735791E+02  0.00000000000E+00 0.  1.
         -2   -1    0    0    0  501 -0.00000000000E+00 -0.00000000000E+00 -0.21678341404E+03  0.21678341404E+03  0.00000000000E+00 0.  1.
         35    2    1    2    0    0  0.00000000000E+00  0.00000000000E+00 -0.12949967825E+03  0.30406714984E+03  0.27511209523E+03 0.  0.
         25    1    3    3    0    0 -0.30712534155E+02 -0.56905319400E+02 -0.44364342511E+02  0.14335156091E+03  0.12000000000E+03 0.  0.
         25    1    3    3    0    0  0.30712534155E+02  0.56905319400E+02 -0.85135335742E+02  0.16071558892E+03  0.12000000000E+03 0.  0.
<mgrwt>
<rscale>  0 0.27511210E+03</rscale>
<asrwt>0</asrwt>
<pdfrwt beam="1">  1        2 0.13428267E-01 0.27511210E+03</pdfrwt>
<pdfrwt beam="2">  1       -2 0.33351294E-01 0.27511210E+03</pdfrwt>
<totfact> 0.37254161E+03</totfact>
</mgrwt>
</event>
<event>
 5    1  0.1139158E+001  0.2745761E+03  0.7818608E-02  0.1098689E+00
         -1   -1    0    0    0  501 -0.00000000000E+00  0.00000000000E+00  0.11930115851E+02  0.11930115851E+02  0.00000000000E+00 0. -1.
          1   -1    0    0  501    0  0.00000000000E+00 -0.00000000000E+00 -0.15798684448E+04  0.15798684448E+04  0.00000000000E+00 0. -1.
         35    2    1    2    0    0  0.00000000000E+00  0.00000000000E+00 -0.15679383290E+04  0.15917985607E+04  0.27457613572E+03 0.  0.
         25    1    3    3    0    0 -0.21498517128E+02  0.61847104053E+02 -0.71046389939E+03  0.72349582090E+03  0.12000000000E+03 0.  0.
         25    1    3    3    0    0  0.21498517128E+02 -0.61847104053E+02 -0.85747442959E+03  0.86830273978E+03  0.12000000000E+03 0.  0.
<mgrwt>
<rscale>  0 0.27457614E+03</rscale>
<asrwt>0</asrwt>
<pdfrwt beam="1">  1        1 0.24305659E+00 0.27457614E+03</pdfrwt>
<pdfrwt beam="2">  1       -1 0.18354031E-02 0.27457614E+03</pdfrwt>
<totfact> 0.49273451E+03</totfact>
</mgrwt>
</event>
<event>
 5    1  0.1139158E+001  0.2749827E+03  0.7818608E-02  0.1098461E+00
          1   -1    0    0  501    0  0.00000000000E+00  0.00000000000E+00  0.21763014703E+03  0.21763014703E+03  0.00000000000E+00 0. -1.
         -1   -1    0    0    0  501 -0.00000000000E+00 -0.00000000000E+00 -0.86862364205E+02  0.86862364205E+02  0.00000000000E+00 0. -1.
         35    2    1    2    0    0  0.00000000000E+00  0.00000000000E+00  0.13076778283E+03  0.30449251124E+03  0.27498268377E+03 0.  0.
         25    1    3    3    0    0  0.20291570961E+02  0.45731860063E+02  0.11491342439E+03  0.17351727862E+03  0.12000000000E+03 0.  0.
         25    1    3    3    0    0 -0.20291570961E+02 -0.45731860063E+02  0.15854358443E+02  0.13097523262E+03  0.12000000000E+03 0.  0.
<mgrwt>
<rscale>  0 0.27498268E+03</rscale>
<asrwt>0</asrwt>
<pdfrwt beam="1">  1        1 0.33481561E-01 0.27498268E+03</pdfrwt>
<pdfrwt beam="2">  1       -1 0.13363441E-01 0.27498268E+03</pdfrwt>
<totfact> 0.50543416E+03</totfact>
</mgrwt>
</event>
<event>
 5    1  0.1139158E+001  0.2752587E+03  0.7818608E-02  0.1098307E+00
         -1   -1    0    0    0  501 -0.00000000000E+00  0.00000000000E+00  0.42541170733E+02  0.42541170733E+02  0.00000000000E+00 0. -1.
          1   -1    0    0  501    0  0.00000000000E+00 -0.00000000000E+00 -0.44525898084E+03  0.44525898084E+03  0.00000000000E+00 0. -1.
         35    2    1    2    0    0  0.00000000000E+00  0.00000000000E+00 -0.40271781011E+03  0.48780015158E+03  0.27525870249E+03 0.  0.
         25    1    3    3    0    0  0.11212239120E+02 -0.48099572093E+02 -0.12009932492E+03  0.17681383144E+03  0.12000000000E+03 0.  0.
         25    1    3    3    0    0 -0.11212239120E+02  0.48099572093E+02 -0.28261848519E+03  0.31098632014E+03  0.12000000000E+03 0.  0.
<mgrwt>
<rscale>  0 0.27525870E+03</rscale>
<asrwt>0</asrwt>
<pdfrwt beam="1">  1        1 0.68501383E-01 0.27525870E+03</pdfrwt>
<pdfrwt beam="2">  1       -1 0.65447954E-02 0.27525870E+03</pdfrwt>
<totfact> 0.61345215E+03</totfact>
</mgrwt>
</event>
<event>
 5    1  0.1139158E+001  0.2745896E+03  0.7818608E-02  0.1098681E+00
          2   -1    0    0  501    0  0.00000000000E+00  0.00000000000E+00  0.42391016805E+04  0.42391016805E+04  0.00000000000E+00 0. -1.
         -2   -1    0    0    0  501 -0.00000000000E+00 -0.00000000000E+00 -0.44466648997E+01  0.44466648997E+01  0.00000000000E+00 0. -1.
         35    2    1    2    0    0  0.00000000000E+00  0.00000000000E+00  0.42346550156E+04  0.42435483454E+04  0.27458961851E+03 0.  0.
         25    1    3    3    0    0 -0.54355822954E+01 -0.16158161674E+02  0.11206568775E+04  0.11271922945E+04  0.12000000000E+03 0.  0.
         25    1    3    3    0    0  0.54355822954E+01  0.16158161674E+02  0.31139981382E+04  0.31163560509E+04  0.12000000000E+03 0.  0.
<mgrwt>
<rscale>  0 0.27458962E+03</rscale>
<asrwt>0</asrwt>
<pdfrwt beam="1">  1        2 0.65216626E+00 0.27458962E+03</pdfrwt>
<pdfrwt beam="2">  1       -2 0.68410568E-03 0.27458962E+03</pdfrwt>
<totfact> 0.10646084E+03</totfact>
</mgrwt>
</event>
<event>
 5    1  0.1139158E+001  0.2750761E+03  0.7818608E-02  0.1098409E+00
         -1   -1    0    0    0  501 -0.00000000000E+00  0.00000000000E+00  0.11236337351E+03  0.11236337351E+03  0.00000000000E+00 0.  1.
          1   -1    0    0  501    0  0.00000000000E+00 -0.00000000000E+00 -0.16835308748E+03  0.16835308748E+03  0.00000000000E+00 0.  1.
         35    2    1    2    0    0  0.00000000000E+00  0.00000000000E+00 -0.55989713966E+02  0.28071646099E+03  0.27507614109E+03 0.  0.
         25    1    3    3    0    0 -0.12280759617E+02 -0.60851116338E+02 -0.54272511649E+02  0.14559938508E+03  0.12000000000E+03 0.  0.
         25    1    3    3    0    0  0.12280759617E+02  0.60851116338E+02 -0.17172023169E+01  0.13511707590E+03  0.12000000000E+03 0.  0.
<mgrwt>
<rscale>  0 0.27507614E+03</rscale>
<asrwt>0</asrwt>
<pdfrwt beam="1">  1        1 0.25900475E-01 0.27507614E+03</pdfrwt>
<pdfrwt beam="2">  1       -1 0.17286673E-01 0.27507614E+03</pdfrwt>
<totfact> 0.46443483E+03</totfact>
</mgrwt>
</event>
<event>
 5    1  0.1139158E+001  0.2770328E+03  0.7818608E-02  0.1097321E+00
          1   -1    0    0  501    0  0.00000000000E+00  0.00000000000E+00  0.27366599108E+03  0.27366599108E+03  0.00000000000E+00 0. -1.
         -1   -1    0    0    0  501 -0.00000000000E+00 -0.00000000000E+00 -0.70110267187E+02  0.70110267187E+02  0.00000000000E+00 0. -1.
         35    2    1    2    0    0  0.00000000000E+00  0.00000000000E+00  0.20355572389E+03  0.34377625826E+03  0.27703281939E+03 0.  0.
         25    1    3    3    0    0  0.41519360577E+02  0.50038718771E+02  0.13111892468E+03  0.18926146752E+03  0.12000000000E+03 0.  0.
         25    1    3    3    0    0 -0.41519360577E+02 -0.50038718771E+02  0.72436799213E+02  0.15451479075E+03  0.12000000000E+03 0.  0.
<mgrwt>
<rscale>  0 0.27703282E+03</rscale>
<asrwt>0</asrwt>
<pdfrwt beam="1">  1        1 0.42102460E-01 0.27703282E+03</pdfrwt>
<pdfrwt beam="2">  1       -1 0.10786195E-01 0.27703282E+03</pdfrwt>
<totfact> 0.52990945E+03</totfact>
</mgrwt>
</event>
<event>
 5    1  0.1139158E+001  0.2750414E+03  0.7818608E-02  0.1098428E+00
          2   -1    0    0  501    0  0.00000000000E+00  0.00000000000E+00  0.23613127417E+03  0.23613127417E+03  0.00000000000E+00 0. -1.
         -2   -1    0    0    0  501 -0.00000000000E+00 -0.00000000000E+00 -0.80090821498E+02  0.80090821498E+02  0.00000000000E+00 0. -1.
         35    2    1    2    0    0  0.00000000000E+00  0.00000000000E+00  0.15604045267E+03  0.31622209567E+03  0.27504143491E+03 0.  0.
         25    1    3    3    0    0 -0.46999574755E+02 -0.47543683290E+02  0.70517365187E+02  0.15440874535E+03  0.12000000000E+03 0.  0.
         25    1    3    3    0    0  0.46999574755E+02  0.47543683290E+02  0.85523087483E+02  0.16181335032E+03  0.12000000000E+03 0.  0.
<mgrwt>
<rscale>  0 0.27504143E+03</rscale>
<asrwt>0</asrwt>
<pdfrwt beam="1">  1        2 0.36327888E-01 0.27504143E+03</pdfrwt>
<pdfrwt beam="2">  1       -2 0.12321665E-01 0.27504143E+03</pdfrwt>
<totfact> 0.66717955E+03</totfact>
</mgrwt>
</event>
<event>
 5    1  0.1139158E+001  0.2755997E+03  0.7818608E-02  0.1098117E+00
         -1   -1    0    0    0  501 -0.00000000000E+00  0.00000000000E+00  0.25075225962E+02  0.25075225962E+02  0.00000000000E+00 0. -1.
          1   -1    0    0  501    0  0.00000000000E+00 -0.00000000000E+00 -0.75727334195E+03  0.75727334195E+03  0.00000000000E+00 0. -1.
         35    2    1    2    0    0  0.00000000000E+00  0.00000000000E+00 -0.73219811599E+03  0.78234856792E+03  0.27559971092E+03 0.  0.
         25    1    3    3    0    0 -0.25670472716E+02  0.61691102057E+02 -0.39771408253E+03  0.42076270828E+03  0.12000000000E+03 0.  0.
         25    1    3    3    0    0  0.25670472716E+02 -0.61691102057E+02 -0.33448403346E+03  0.36158585963E+03  0.12000000000E+03 0.  0.
<mgrwt>
<rscale>  0 0.27559971E+03</rscale>
<asrwt>0</asrwt>
<pdfrwt beam="1">  1        1 0.11650360E+00 0.27559971E+03</pdfrwt>
<pdfrwt beam="2">  1       -1 0.38577269E-02 0.27559971E+03</pdfrwt>
<totfact> 0.64925672E+03</totfact>
</mgrwt>
</event>
<event>
 5    1  0.1139158E+001  0.2728565E+03  0.7818608E-02  0.1099656E+00
         -2   -1    0    0    0  501 -0.00000000000E+00  0.00000000000E+00  0.36815549764E+02  0.36815549764E+02  0.00000000000E+00 0.  1.
          2   -1    0    0  501    0  0.00000000000E+00 -0.00000000000E+00 -0.50556544302E+03  0.50556544302E+03  0.00000000000E+00 0.  1.
         35    2    1    2    0    0  0.00000000000E+00  0.00000000000E+00 -0.46874989325E+03  0.54238099278E+03  0.27285651707E+03 0.  0.
         25    1    3    3    0    0  0.51770589466E+02 -0.23226996410E+02 -0.17173650958E+03  0.21705555975E+03  0.12000000000E+03 0.  0.
         25    1    3    3    0    0 -0.51770589466E+02  0.23226996410E+02 -0.29701338367E+03  0.32532543303E+03  0.12000000000E+03 0.  0.
<mgrwt>
<rscale>  0 0.27285652E+03</rscale>
<asrwt>0</asrwt>
<pdfrwt beam="1">  1        2 0.77779293E-01 0.27285652E+03</pdfrwt>
<pdfrwt beam="2">  1       -2 0.56639311E-02 0.27285652E+03</pdfrwt>
<totfact> 0.98824786E+03</totfact>
</mgrwt>
</event>
<event>
 5    1  0.1139158E+001  0.2750025E+03  0.7818608E-02  0.1098450E+00
         -2   -1    0    0    0  501 -0.00000000000E+00  0.00000000000E+00  0.40460947783E+03  0.40460947783E+03  0.00000000000E+00 0.  1.
          2   -1    0    0  501    0  0.00000000000E+00 -0.00000000000E+00 -0.46728015895E+02  0.46728015895E+02  0.00000000000E+00 0.  1.
         35    2    1    2    0    0  0.00000000000E+00  0.00000000000E+00  0.35788146193E+03  0.45133749372E+03  0.27500253171E+03 0.  0.
         25    1    3    3    0    0 -0.65299805319E+02 -0.15144023563E+02  0.17297969872E+03  0.22094203356E+03  0.12000000000E+03 0.  0.
         25    1    3    3    0    0  0.65299805319E+02  0.15144023563E+02  0.18490176321E+03  0.23039546016E+03  0.12000000000E+03 0.  0.
<mgrwt>
<rscale>  0 0.27500253E+03</rscale>
<asrwt>0</asrwt>
<pdfrwt beam="1">  1        2 0.71889258E-02 0.27500253E+03</pdfrwt>
<pdfrwt beam="2">  1       -2 0.62247610E-01 0.27500253E+03</pdfrwt>
<totfact> 0.23830479E+03</totfact>
</mgrwt>
</event>
<event>
 5    1  0.1139158E+001  0.2744877E+03  0.7818608E-02  0.1098738E+00
          1   -1    0    0  501    0  0.00000000000E+00  0.00000000000E+00  0.29223023645E+03  0.29223023645E+03  0.00000000000E+00 0. -1.
         -1   -1    0    0    0  501 -0.00000000000E+00 -0.00000000000E+00 -0.64455579349E+02  0.64455579349E+02  0.00000000000E+00 0. -1.
         35    2    1    2    0    0  0.00000000000E+00  0.00000000000E+00  0.22777465710E+03  0.35668581580E+03  0.27448766234E+03 0.  0.
         25    1    3    3    0    0  0.31668300864E+02  0.46154732828E+02  0.66985478216E+02  0.14839203123E+03  0.12000000000E+03 0.  0.
         25    1    3    3    0    0 -0.31668300864E+02 -0.46154732828E+02  0.16078917888E+03  0.20829378457E+03  0.12000000000E+03 0.  0.
<mgrwt>
<rscale>  0 0.27448766E+03</rscale>
<asrwt>0</asrwt>
<pdfrwt beam="1">  1        1 0.44958497E-01 0.27448766E+03</pdfrwt>
<pdfrwt beam="2">  1       -1 0.99162431E-02 0.27448766E+03</pdfrwt>
<totfact> 0.55568672E+03</totfact>
</mgrwt>
</event>
<event>
 5    1  0.1139158E+001  0.2753835E+03  0.7818608E-02  0.1098237E+00
         -2   -1    0    0    0  501 -0.00000000000E+00  0.00000000000E+00  0.19065129460E+02  0.19065129460E+02  0.00000000000E+00 0.  1.
          2   -1    0    0  501    0  0.00000000000E+00 -0.00000000000E+00 -0.99443410804E+03  0.99443410804E+03  0.00000000000E+00 0.  1.
         35    2    1    2    0    0  0.00000000000E+00  0.00000000000E+00 -0.97536897858E+03  0.10134992375E+04  0.27538347815E+03 0.  0.
         25    1    3    3    0    0 -0.17612057403E+02  0.53415804459E+02 -0.62517200615E+03  0.63906452726E+03  0.12000000000E+03 0.  0.
         25    1    3    3    0    0  0.17612057403E+02 -0.53415804459E+02 -0.35019697243E+03  0.37443471024E+03  0.12000000000E+03 0.  0.
<mgrwt>
<rscale>  0 0.27538348E+03</rscale>
<asrwt>0</asrwt>
<pdfrwt beam="1">  1        2 0.15298989E+00 0.27538348E+03</pdfrwt>
<pdfrwt beam="2">  1       -2 0.29330964E-02 0.27538348E+03</pdfrwt>
<totfact> 0.11565362E+04</totfact>
</mgrwt>
</event>
<event>
 5    1  0.1139158E+001  0.2746336E+03  0.7818608E-02  0.1098657E+00
          2   -1    0    0  501    0  0.00000000000E+00  0.00000000000E+00  0.90232569816E+03  0.90232569816E+03  0.00000000000E+00 0. -1.
         -2   -1    0    0    0  501 -0.00000000000E+00 -0.00000000000E+00 -0.20897001124E+02  0.20897001124E+02  0.00000000000E+00 0. -1.
         35    2    1    2    0    0  0.00000000000E+00  0.00000000000E+00  0.88142869704E+03  0.92322269929E+03  0.27463358228E+03 0.  0.
         25    1    3    3    0    0 -0.23132673874E+02  0.40857884047E+02  0.60022162431E+03  0.61389778105E+03  0.12000000000E+03 0.  0.
         25    1    3    3    0    0  0.23132673874E+02 -0.40857884047E+02  0.28120707273E+03  0.30932491823E+03  0.12000000000E+03 0.  0.
<mgrwt>
<rscale>  0 0.27463358E+03</rscale>
<asrwt>0</asrwt>
<pdfrwt beam="1">  1        2 0.13881931E+00 0.27463358E+03</pdfrwt>
<pdfrwt beam="2">  1       -2 0.32149239E-02 0.27463358E+03</pdfrwt>
<totfact> 0.11526710E+04</totfact>
</mgrwt>
</event>
<event>
 5    1  0.1139158E+001  0.2748398E+03  0.7818608E-02  0.1098541E+00
          2   -1    0    0  501    0  0.00000000000E+00  0.00000000000E+00  0.49182286215E+04  0.49182286215E+04  0.00000000000E+00 0.  1.
         -2   -1    0    0    0  501 -0.00000000000E+00 -0.00000000000E+00 -0.38396401563E+01  0.38396401563E+01  0.00000000000E+00 0.  1.
         35    2    1    2    0    0  0.00000000000E+00  0.00000000000E+00  0.49143889814E+04  0.49220682617E+04  0.27483979416E+03 0.  0.
         25    1    3    3    0    0  0.14429151464E+01 -0.62712273998E+02  0.28769336208E+04  0.28801183951E+04  0.12000000000E+03 0.  0.
         25    1    3    3    0    0 -0.14429151464E+01  0.62712273998E+02  0.20374553605E+04  0.20419498665E+04  0.12000000000E+03 0.  0.
<mgrwt>
<rscale>  0 0.27483979E+03</rscale>
<asrwt>0</asrwt>
<pdfrwt beam="1">  1        2 0.75664552E+00 0.27483979E+03</pdfrwt>
<pdfrwt beam="2">  1       -2 0.59071781E-03 0.27483979E+03</pdfrwt>
<totfact> 0.28831532E+02</totfact>
</mgrwt>
</event>
<event>
 5    1  0.1139158E+001  0.2744672E+03  0.7818608E-02  0.1098750E+00
         -2   -1    0    0    0  501 -0.00000000000E+00  0.00000000000E+00  0.24435490213E+03  0.24435490213E+03  0.00000000000E+00 0.  1.
          2   -1    0    0  501    0  0.00000000000E+00 -0.00000000000E+00 -0.77072589632E+02  0.77072589632E+02  0.00000000000E+00 0.  1.
         35    2    1    2    0    0  0.00000000000E+00  0.00000000000E+00  0.16728231250E+03  0.32142749176E+03  0.27446723008E+03 0.  0.
         25    1    3    3    0    0 -0.28355035527E+01  0.24555555356E+02  0.15604150962E+03  0.19839346790E+03  0.12000000000E+03 0.  0.
         25    1    3    3    0    0  0.28355035527E+01 -0.24555555356E+02  0.11240802877E+02  0.12303402387E+03  0.12000000000E+03 0.  0.
<mgrwt>
<rscale>  0 0.27446723E+03</rscale>
<asrwt>0</asrwt>
<pdfrwt beam="1">  1        2 0.11857322E-01 0.27446723E+03</pdfrwt>
<pdfrwt beam="2">  1       -2 0.37593061E-01 0.27446723E+03</pdfrwt>
<totfact> 0.34625484E+03</totfact>
</mgrwt>
</event>
<event>
 5    1  0.1139158E+001  0.2843264E+03  0.7818608E-02  0.1093349E+00
         -2   -1    0    0    0  501 -0.00000000000E+00  0.00000000000E+00  0.74495245712E+01  0.74495245712E+01  0.00000000000E+00 0.  1.
          2   -1    0    0  501    0  0.00000000000E+00 -0.00000000000E+00 -0.27129760237E+04  0.27129760237E+04  0.00000000000E+00 0.  1.
         35    2    1    2    0    0  0.00000000000E+00  0.00000000000E+00 -0.27055264991E+04  0.27204255483E+04  0.28432644302E+03 0.  0.
         25    1    3    3    0    0 -0.33010928654E+01 -0.27147909875E+02 -0.67199224099E+03  0.68317016781E+03  0.12000000000E+03 0.  0.
         25    1    3    3    0    0  0.33010928654E+01  0.27147909875E+02 -0.20335342582E+04  0.20372553805E+04  0.12000000000E+03 0.  0.
<mgrwt>
<rscale>  0 0.28432644E+03</rscale>
<asrwt>0</asrwt>
<pdfrwt beam="1">  1        2 0.41738110E+00 0.28432644E+03</pdfrwt>
<pdfrwt beam="2">  1       -2 0.11460802E-02 0.28432644E+03</pdfrwt>
<totfact> 0.53359961E+03</totfact>
</mgrwt>
</event>
<event>
 5    1  0.1139158E+001  0.2743514E+03  0.7818608E-02  0.1098815E+00
         -3   -1    0    0    0  501 -0.00000000000E+00  0.00000000000E+00  0.52876489421E+01  0.52876489421E+01  0.00000000000E+00 0. -1.
          3   -1    0    0  501    0  0.00000000000E+00 -0.00000000000E+00 -0.35587028954E+04  0.35587028954E+04  0.00000000000E+00 0. -1.
         35    2    1    2    0    0  0.00000000000E+00  0.00000000000E+00 -0.35534152465E+04  0.35639905444E+04  0.27435139220E+03 0.  0.
         25    1    3    3    0    0  0.29863396421E+02  0.46197305357E+02 -0.22612342231E+04  0.22650841541E+04  0.12000000000E+03 0.  0.
         25    1    3    3    0    0 -0.29863396421E+02 -0.46197305357E+02 -0.12921810234E+04  0.12989063903E+04  0.12000000000E+03 0.  0.
<mgrwt>
<rscale>  0 0.27435139E+03</rscale>
<asrwt>0</asrwt>
<pdfrwt beam="1">  1        3 0.54749433E+00 0.27435139E+03</pdfrwt>
<pdfrwt beam="2">  1       -3 0.81348211E-03 0.27435139E+03</pdfrwt>
<totfact> 0.24181440E+01</totfact>
</mgrwt>
</event>
<event>
 5    1  0.1139158E+001  0.2730443E+03  0.7818608E-02  0.1099550E+00
          3   -1    0    0  501    0  0.00000000000E+00  0.00000000000E+00  0.39563695686E+03  0.39563695686E+03  0.00000000000E+00 0.  1.
         -3   -1    0    0    0  501 -0.00000000000E+00 -0.00000000000E+00 -0.47109604391E+02  0.47109604391E+02  0.00000000000E+00 0.  1.
         35    2    1    2    0    0  0.00000000000E+00  0.00000000000E+00  0.34852735247E+03  0.44274656125E+03  0.27304432256E+03 0.  0.
         25    1    3    3    0    0  0.57469816734E+02  0.39553832987E+01  0.12508389390E+03  0.18265926039E+03  0.12000000000E+03 0.  0.
         25    1    3    3    0    0 -0.57469816734E+02 -0.39553832987E+01  0.22344345857E+03  0.26008730086E+03  0.12000000000E+03 0.  0.
<mgrwt>
<rscale>  0 0.27304432E+03</rscale>
<asrwt>0</asrwt>
<pdfrwt beam="1">  1        3 0.60867222E-01 0.27304432E+03</pdfrwt>
<pdfrwt beam="2">  1       -3 0.72476317E-02 0.27304432E+03</pdfrwt>
<totfact> 0.85123874E+02</totfact>
</mgrwt>
</event>
<event>
 5    1  0.1139158E+001  0.2748385E+03  0.7818608E-02  0.1098542E+00
          3   -1    0    0  501    0  0.00000000000E+00  0.00000000000E+00  0.88046965761E+02  0.88046965761E+02  0.00000000000E+00 0.  1.
         -3   -1    0    0    0  501 -0.00000000000E+00 -0.00000000000E+00 -0.21447708250E+03  0.21447708250E+03  0.00000000000E+00 0.  1.
         35    2    1    2    0    0  0.00000000000E+00  0.00000000000E+00 -0.12643011674E+03  0.30252404827E+03  0.27483854417E+03 0.  0.
         25    1    3    3    0    0  0.48334440495E+02 -0.31143280607E+02 -0.25436725116E+02  0.13547379470E+03  0.12000000000E+03 0.  0.
         25    1    3    3    0    0 -0.48334440495E+02  0.31143280607E+02 -0.10099339163E+03  0.16705025357E+03  0.12000000000E+03 0.  0.
<mgrwt>
<rscale>  0 0.27483854E+03</rscale>
<asrwt>0</asrwt>
<pdfrwt beam="1">  1        3 0.13545687E-01 0.27483854E+03</pdfrwt>
<pdfrwt beam="2">  1       -3 0.32996474E-01 0.27483854E+03</pdfrwt>
<totfact> 0.10096716E+03</totfact>
</mgrwt>
</event>
<event>
 5    1  0.1139158E+001  0.2729537E+03  0.7818608E-02  0.1099601E+00
         -2   -1    0    0    0  501 -0.00000000000E+00  0.00000000000E+00  0.40844507810E+02  0.40844507810E+02  0.00000000000E+00 0.  1.
          2   -1    0    0  501    0  0.00000000000E+00 -0.00000000000E+00 -0.45602060701E+03  0.45602060701E+03  0.00000000000E+00 0.  1.
         35    2    1    2    0    0  0.00000000000E+00  0.00000000000E+00 -0.41517609920E+03  0.49686511482E+03  0.27295374879E+03 0.  0.
         25    1    3    3    0    0 -0.52049349508E+02 -0.25527207404E+02 -0.26113055610E+03  0.29317220269E+03  0.12000000000E+03 0.  0.
         25    1    3    3    0    0  0.52049349508E+02  0.25527207404E+02 -0.15404554310E+03  0.20369291213E+03  0.12000000000E+03 0.  0.
<mgrwt>
<rscale>  0 0.27295375E+03</rscale>
<asrwt>0</asrwt>
<pdfrwt beam="1">  1        2 0.70157020E-01 0.27295375E+03</pdfrwt>
<pdfrwt beam="2">  1       -2 0.62837701E-02 0.27295375E+03</pdfrwt>
<totfact> 0.94512482E+03</totfact>
</mgrwt>
</event>
<event>
 5    1  0.1139158E+001  0.2729993E+03  0.7818608E-02  0.1099575E+00
          2   -1    0    0  501    0  0.00000000000E+00  0.00000000000E+00  0.18592070212E+02  0.18592070212E+02  0.00000000000E+00 0. -1.
         -2   -1    0    0    0  501 -0.00000000000E+00 -0.00000000000E+00 -0.10021559922E+04  0.10021559922E+04  0.00000000000E+00 0. -1.
         35    2    1    2    0    0  0.00000000000E+00  0.00000000000E+00 -0.98356392197E+03  0.10207480624E+04  0.27299930087E+03 0.  0.
         25    1    3    3    0    0  0.59777704826E+02 -0.13955651134E+02 -0.41123937759E+03  0.43276547906E+03  0.12000000000E+03 0.  0.
         25    1    3    3    0    0 -0.59777704826E+02  0.13955651134E+02 -0.57232454438E+03  0.58798258332E+03  0.12000000000E+03 0.  0.
<mgrwt>
<rscale>  0 0.27299930E+03</rscale>
<asrwt>0</asrwt>
<pdfrwt beam="1">  1        2 0.28603185E-02 0.27299930E+03</pdfrwt>
<pdfrwt beam="2">  1       -2 0.15417785E+00 0.27299930E+03</pdfrwt>
<totfact> 0.98733106E+02</totfact>
</mgrwt>
</event>
<event>
 5    1  0.1139158E+001  0.2750443E+03  0.7818608E-02  0.1098427E+00
          2   -1    0    0  501    0  0.00000000000E+00  0.00000000000E+00  0.27299394550E+02  0.27299394550E+02  0.00000000000E+00 0. -1.
         -2   -1    0    0    0  501 -0.00000000000E+00 -0.00000000000E+00 -0.69277529829E+03  0.69277529829E+03  0.00000000000E+00 0. -1.
         35    2    1    2    0    0  0.00000000000E+00  0.00000000000E+00 -0.66547590374E+03  0.72007469283E+03  0.27504433244E+03 0.  0.
         25    1    3    3    0    0 -0.66276128910E+02 -0.12080108347E+01 -0.36122059907E+03  0.38636033148E+03  0.12000000000E+03 0.  0.
         25    1    3    3    0    0  0.66276128910E+02  0.12080108347E+01 -0.30425530467E+03  0.33371436135E+03  0.12000000000E+03 0.  0.
<mgrwt>
<rscale>  0 0.27504433E+03</rscale>
<asrwt>0</asrwt>
<pdfrwt beam="1">  1        2 0.41999071E-02 0.27504433E+03</pdfrwt>
<pdfrwt beam="2">  1       -2 0.10658081E+00 0.27504433E+03</pdfrwt>
<totfact> 0.14641615E+03</totfact>
</mgrwt>
</event>
<event>
 5    1  0.1139158E+001  0.2749588E+03  0.7818608E-02  0.1098475E+00
          2   -1    0    0  501    0  0.00000000000E+00  0.00000000000E+00  0.16031266034E+03  0.16031266034E+03  0.00000000000E+00 0.  1.
         -2   -1    0    0    0  501 -0.00000000000E+00 -0.00000000000E+00 -0.11789826583E+03  0.11789826583E+03  0.00000000000E+00 0.  1.
         35    2    1    2    0    0  0.00000000000E+00  0.00000000000E+00  0.42414394518E+02  0.27821092617E+03  0.27495879433E+03 0.  0.
         25    1    3    3    0    0  0.10155087047E+02 -0.64666225512E+02  0.63454448559E+01  0.13683972810E+03  0.12000000000E+03 0.  0.
         25    1    3    3    0    0 -0.10155087047E+02  0.64666225512E+02  0.36068949663E+02  0.14137119807E+03  0.12000000000E+03 0.  0.
<mgrwt>
<rscale>  0 0.27495879E+03</rscale>
<asrwt>0</asrwt>
<pdfrwt beam="1">  1        2 0.24663486E-01 0.27495879E+03</pdfrwt>
<pdfrwt beam="2">  1       -2 0.18138195E-01 0.27495879E+03</pdfrwt>
<totfact> 0.53905065E+03</totfact>
</mgrwt>
</event>
<event>
 5    1  0.1139158E+001  0.2744873E+03  0.7818608E-02  0.1098739E+00
          1   -1    0    0  501    0  0.00000000000E+00  0.00000000000E+00  0.11782010416E+04  0.11782010416E+04  0.00000000000E+00 0.  1.
         -1   -1    0    0    0  501 -0.00000000000E+00 -0.00000000000E+00 -0.15986929849E+02  0.15986929849E+02  0.00000000000E+00 0.  1.
         35    2    1    2    0    0  0.00000000000E+00  0.00000000000E+00  0.11622141117E+04  0.11941879714E+04  0.27448728495E+03 0.  0.
         25    1    3    3    0    0 -0.21491914880E+02 -0.46203999594E+02  0.39453191737E+03  0.41551431480E+03  0.12000000000E+03 0.  0.
         25    1    3    3    0    0  0.21491914880E+02  0.46203999594E+02  0.76768219437E+03  0.77867365663E+03  0.12000000000E+03 0.  0.
<mgrwt>
<rscale>  0 0.27448728E+03</rscale>
<asrwt>0</asrwt>
<pdfrwt beam="1">  1        1 0.18126163E+00 0.27448728E+03</pdfrwt>
<pdfrwt beam="2">  1       -1 0.24595286E-02 0.27448728E+03</pdfrwt>
<totfact> 0.59993536E+03</totfact>
</mgrwt>
</event>
<event>
 5    1  0.1139158E+001  0.2744522E+03  0.7818608E-02  0.1098758E+00
         -1   -1    0    0    0  501 -0.00000000000E+00  0.00000000000E+00  0.25791772202E+03  0.25791772202E+03  0.00000000000E+00 0.  1.
          1   -1    0    0  501    0  0.00000000000E+00 -0.00000000000E+00 -0.73011685391E+02  0.73011685391E+02  0.00000000000E+00 0.  1.
         35    2    1    2    0    0  0.00000000000E+00  0.00000000000E+00  0.18490603663E+03  0.33092940741E+03  0.27445223684E+03 0.  0.
         25    1    3    3    0    0  0.13799285140E+02  0.14030120896E+02  0.16912917934E+03  0.20830733033E+03  0.12000000000E+03 0.  0.
         25    1    3    3    0    0 -0.13799285140E+02 -0.14030120896E+02  0.15776857287E+02  0.12262207708E+03  0.12000000000E+03 0.  0.
<mgrwt>
<rscale>  0 0.27445224E+03</rscale>
<asrwt>0</asrwt>
<pdfrwt beam="1">  1        1 0.11232567E-01 0.27445224E+03</pdfrwt>
<pdfrwt beam="2">  1       -1 0.39679649E-01 0.27445224E+03</pdfrwt>
<totfact> 0.34185910E+03</totfact>
</mgrwt>
</event>
<event>
 5    1  0.1139158E+001  0.2746473E+03  0.7818608E-02  0.1098649E+00
          2   -1    0    0  501    0  0.00000000000E+00  0.00000000000E+00  0.76339318410E+03  0.76339318410E+03  0.00000000000E+00 0. -1.
         -2   -1    0    0    0  501 -0.00000000000E+00 -0.00000000000E+00 -0.24702593432E+02  0.24702593432E+02  0.00000000000E+00 0. -1.
         35    2    1    2    0    0  0.00000000000E+00  0.00000000000E+00  0.73869059067E+03  0.78809577753E+03  0.27464734811E+03 0.  0.
         25    1    3    3    0    0 -0.65374272036E+02 -0.13360284812E+02  0.36261649588E+03  0.38774091316E+03  0.12000000000E+03 0.  0.
         25    1    3    3    0    0  0.65374272036E+02  0.13360284812E+02  0.37607409480E+03  0.40035486438E+03  0.12000000000E+03 0.  0.
<mgrwt>
<rscale>  0 0.27464735E+03</rscale>
<asrwt>0</asrwt>
<pdfrwt beam="1">  1        2 0.11744509E+00 0.27464735E+03</pdfrwt>
<pdfrwt beam="2">  1       -2 0.38003996E-02 0.27464735E+03</pdfrwt>
<totfact> 0.11139910E+04</totfact>
</mgrwt>
</event>
<event>
 5    1  0.1139158E+001  0.2747317E+03  0.7818608E-02  0.1098602E+00
          2   -1    0    0  501    0  0.00000000000E+00  0.00000000000E+00  0.93036606308E+03  0.93036606308E+03  0.00000000000E+00 0.  1.
         -2   -1    0    0    0  501 -0.00000000000E+00 -0.00000000000E+00 -0.20281672278E+02  0.20281672278E+02  0.00000000000E+00 0.  1.
         35    2    1    2    0    0  0.00000000000E+00  0.00000000000E+00  0.91008439080E+03  0.95064773536E+03  0.27473172070E+03 0.  0.
         25    1    3    3    0    0  0.88056383041E+01  0.29508640352E+02  0.66037048377E+03  0.67189096955E+03  0.12000000000E+03 0.  0.
         25    1    3    3    0    0 -0.88056383041E+01 -0.29508640352E+02  0.24971390703E+03  0.27875676581E+03  0.12000000000E+03 0.  0.
<mgrwt>
<rscale>  0 0.27473172E+03</rscale>
<asrwt>0</asrwt>
<pdfrwt beam="1">  1        2 0.14313321E+00 0.27473172E+03</pdfrwt>
<pdfrwt beam="2">  1       -2 0.31202580E-02 0.27473172E+03</pdfrwt>
<totfact> 0.11564375E+04</totfact>
</mgrwt>
</event>
<event>
 5    1  0.1139158E+001  0.2745488E+03  0.7818608E-02  0.1098704E+00
         -2   -1    0    0    0  501 -0.00000000000E+00  0.00000000000E+00  0.17843581869E+02  0.17843581869E+02  0.00000000000E+00 0.  1.
          2   -1    0    0  501    0  0.00000000000E+00 -0.00000000000E+00 -0.10560807590E+04  0.10560807590E+04  0.00000000000E+00 0.  1.
         35    2    1    2    0    0  0.00000000000E+00  0.00000000000E+00 -0.10382371771E+04  0.10739243409E+04  0.27454881886E+03 0.  0.
         25    1    3    3    0    0 -0.13446500693E+02  0.62190494719E+02 -0.44129869851E+03  0.46172828300E+03  0.12000000000E+03 0.  0.
         25    1    3    3    0    0  0.13446500693E+02 -0.62190494719E+02 -0.59693847864E+03  0.61219605789E+03  0.12000000000E+03 0.  0.
<mgrwt>
<rscale>  0 0.27454882E+03</rscale>
<asrwt>0</asrwt>
<pdfrwt beam="1">  1        2 0.16247393E+00 0.27454882E+03</pdfrwt>
<pdfrwt beam="2">  1       -2 0.27451670E-02 0.27454882E+03</pdfrwt>
<totfact> 0.11708501E+04</totfact>
</mgrwt>
</event>
<event>
 5    1  0.1139158E+001  0.2748955E+03  0.7818608E-02  0.1098510E+00
         -1   -1    0    0    0  501 -0.00000000000E+00  0.00000000000E+00  0.13017463692E+02  0.13017463692E+02  0.00000000000E+00 0. -1.
          1   -1    0    0  501    0  0.00000000000E+00 -0.00000000000E+00 -0.14512722045E+04  0.14512722045E+04  0.00000000000E+00 0. -1.
         35    2    1    2    0    0  0.00000000000E+00  0.00000000000E+00 -0.14382547408E+04  0.14642896682E+04  0.27489549453E+03 0.  0.
         25    1    3    3    0    0 -0.46378312972E+02 -0.35257444108E+02 -0.54263315592E+03  0.55878866952E+03  0.12000000000E+03 0.  0.
         25    1    3    3    0    0  0.46378312972E+02  0.35257444108E+02 -0.89562158488E+03  0.90550099866E+03  0.12000000000E+03 0.  0.
<mgrwt>
<rscale>  0 0.27489549E+03</rscale>
<asrwt>0</asrwt>
<pdfrwt beam="1">  1        1 0.22327280E+00 0.27489549E+03</pdfrwt>
<pdfrwt beam="2">  1       -1 0.20026853E-02 0.27489549E+03</pdfrwt>
<totfact> 0.52771147E+03</totfact>
</mgrwt>
</event>
<event>
 5    1  0.1139158E+001  0.2754396E+03  0.7818608E-02  0.1098206E+00
         -1   -1    0    0    0  501 -0.00000000000E+00  0.00000000000E+00  0.12224901462E+03  0.12224901462E+03  0.00000000000E+00 0. -1.
          1   -1    0    0  501    0  0.00000000000E+00 -0.00000000000E+00 -0.15514839860E+03  0.15514839860E+03  0.00000000000E+00 0. -1.
         35    2    1    2    0    0  0.00000000000E+00  0.00000000000E+00 -0.32899383974E+02  0.27739741322E+03  0.27543956759E+03 0.  0.
         25    1    3    3    0    0  0.74816006164E+01  0.44257484352E+02 -0.67326491299E+02  0.14473270432E+03  0.12000000000E+03 0.  0.
         25    1    3    3    0    0 -0.74816006164E+01 -0.44257484352E+02  0.34427107325E+02  0.13266470890E+03  0.12000000000E+03 0.  0.
<mgrwt>
<rscale>  0 0.27543957E+03</rscale>
<asrwt>0</asrwt>
<pdfrwt beam="1">  1        1 0.23868984E-01 0.27543957E+03</pdfrwt>
<pdfrwt beam="2">  1       -1 0.18807541E-01 0.27543957E+03</pdfrwt>
<totfact> 0.44992141E+03</totfact>
</mgrwt>
</event>
<event>
 5    1  0.1139158E+001  0.2759637E+03  0.7818608E-02  0.1097914E+00
          1   -1    0    0  501    0  0.00000000000E+00  0.00000000000E+00  0.65231681160E+03  0.65231681160E+03  0.00000000000E+00 0. -1.
         -1   -1    0    0    0  501 -0.00000000000E+00 -0.00000000000E+00 -0.29186729593E+02  0.29186729593E+02  0.00000000000E+00 0. -1.
         35    2    1    2    0    0  0.00000000000E+00  0.00000000000E+00  0.62313008201E+03  0.68150354119E+03  0.27596372507E+03 0.  0.
         25    1    3    3    0    0 -0.23756056559E+01 -0.61413410994E+02  0.23907051556E+03  0.27446668643E+03  0.12000000000E+03 0.  0.
         25    1    3    3    0    0  0.23756056559E+01  0.61413410994E+02  0.38405956645E+03  0.40703685476E+03  0.12000000000E+03 0.  0.
<mgrwt>
<rscale>  0 0.27596373E+03</rscale>
<asrwt>0</asrwt>
<pdfrwt beam="1">  1        1 0.10035642E+00 0.27596373E+03</pdfrwt>
<pdfrwt beam="2">  1       -1 0.44902666E-02 0.27596373E+03</pdfrwt>
<totfact> 0.64418415E+03</totfact>
</mgrwt>
</event>
<event>
 5    1  0.1139158E+001  0.2745547E+03  0.7818608E-02  0.1098701E+00
         -3   -1    0    0    0  501 -0.00000000000E+00  0.00000000000E+00  0.48104248119E+02  0.48104248119E+02  0.00000000000E+00 0. -1.
          3   -1    0    0  501    0  0.00000000000E+00 -0.00000000000E+00 -0.39175494596E+03  0.39175494596E+03  0.00000000000E+00 0. -1.
         35    2    1    2    0    0  0.00000000000E+00  0.00000000000E+00 -0.34365069784E+03  0.43985919408E+03  0.27455474589E+03 0.  0.
         25    1    3    3    0    0 -0.60727082329E+02 -0.21122299316E+01 -0.12786762274E+03  0.18558655390E+03  0.12000000000E+03 0.  0.
         25    1    3    3    0    0  0.60727082329E+02  0.21122299316E+01 -0.21578307510E+03  0.25427264018E+03  0.12000000000E+03 0.  0.
<mgrwt>
<rscale>  0 0.27455475E+03</rscale>
<asrwt>0</asrwt>
<pdfrwt beam="1">  1        3 0.60269992E-01 0.27455475E+03</pdfrwt>
<pdfrwt beam="2">  1       -3 0.74006535E-02 0.27455475E+03</pdfrwt>
<totfact> 0.84023848E+02</totfact>
</mgrwt>
</event>
<event>
 5    1  0.1139158E+001  0.2749096E+03  0.7818608E-02  0.1098502E+00
         -2   -1    0    0    0  501 -0.00000000000E+00  0.00000000000E+00  0.23338210042E+03  0.23338210042E+03  0.00000000000E+00 0. -1.
          2   -1    0    0  501    0  0.00000000000E+00 -0.00000000000E+00 -0.80956609187E+02  0.80956609187E+02  0.00000000000E+00 0. -1.
         35    2    1    2    0    0  0.00000000000E+00  0.00000000000E+00  0.15242549123E+03  0.31433870961E+03  0.27490961056E+03 0.  0.
         25    1    3    3    0    0 -0.49325248821E+02 -0.13271233448E+02  0.12585266830E+03  0.18124017195E+03  0.12000000000E+03 0.  0.
         25    1    3    3    0    0  0.49325248821E+02  0.13271233448E+02  0.26572822929E+02  0.13309853766E+03  0.12000000000E+03 0.  0.
<mgrwt>
<rscale>  0 0.27490961E+03</rscale>
<asrwt>0</asrwt>
<pdfrwt beam="1">  1        2 0.12454863E-01 0.27490961E+03</pdfrwt>
<pdfrwt beam="2">  1       -2 0.35904938E-01 0.27490961E+03</pdfrwt>
<totfact> 0.35561695E+03</totfact>
</mgrwt>
</event>
<event>
 5    1  0.1139158E+001  0.2863337E+03  0.7818608E-02  0.1092279E+00
          1   -1    0    0  501    0  0.00000000000E+00  0.00000000000E+00  0.14788577155E+03  0.14788577155E+03  0.00000000000E+00 0.  1.
         -1   -1    0    0    0  501 -0.00000000000E+00 -0.00000000000E+00 -0.13859853378E+03  0.13859853378E+03  0.00000000000E+00 0.  1.
         35    2    1    2    0    0  0.00000000000E+00  0.00000000000E+00  0.92872377759E+01  0.28648430533E+03  0.28633372909E+03 0.  0.
         25    1    3    3    0    0  0.93226040735E+01  0.50702207037E+02  0.63318523428E+02  0.14514427358E+03  0.12000000000E+03 0.  0.
         25    1    3    3    0    0 -0.93226040735E+01 -0.50702207037E+02 -0.54031285652E+02  0.14134003175E+03  0.12000000000E+03 0.  0.
<mgrwt>
<rscale>  0 0.28633373E+03</rscale>
<asrwt>0</asrwt>
<pdfrwt beam="1">  1        1 0.22751657E-01 0.28633373E+03</pdfrwt>
<pdfrwt beam="2">  1       -1 0.21322851E-01 0.28633373E+03</pdfrwt>
<totfact> 0.39042484E+03</totfact>
</mgrwt>
</event>
<event>
 5    1  0.1139158E+001  0.2748212E+03  0.7818608E-02  0.1098552E+00
         -1   -1    0    0    0  501 -0.00000000000E+00  0.00000000000E+00  0.23397783642E+02  0.23397783642E+02  0.00000000000E+00 0.  1.
          1   -1    0    0  501    0  0.00000000000E+00 -0.00000000000E+00 -0.80698568591E+03  0.80698568591E+03  0.00000000000E+00 0.  1.
         35    2    1    2    0    0  0.00000000000E+00  0.00000000000E+00 -0.78358790226E+03  0.83038346955E+03  0.27482122539E+03 0.  0.
         25    1    3    3    0    0  0.21215844967E+02 -0.49825908041E+02 -0.51071156391E+03  0.52740784475E+03  0.12000000000E+03 0.  0.
         25    1    3    3    0    0 -0.21215844967E+02  0.49825908041E+02 -0.27287633835E+03  0.30297562480E+03  0.12000000000E+03 0.  0.
<mgrwt>
<rscale>  0 0.27482123E+03</rscale>
<asrwt>0</asrwt>
<pdfrwt beam="1">  1        1 0.12415162E+00 0.27482123E+03</pdfrwt>
<pdfrwt beam="2">  1       -1 0.35996598E-02 0.27482123E+03</pdfrwt>
<totfact> 0.65299420E+03</totfact>
</mgrwt>
</event>
<event>
 5    1  0.1139158E+001  0.2750633E+03  0.7818608E-02  0.1098416E+00
          1   -1    0    0  501    0  0.00000000000E+00  0.00000000000E+00  0.28767395623E+03  0.28767395623E+03  0.00000000000E+00 0. -1.
         -1   -1    0    0    0  501 -0.00000000000E+00 -0.00000000000E+00 -0.65751363653E+02  0.65751363653E+02  0.00000000000E+00 0. -1.
         35    2    1    2    0    0  0.00000000000E+00  0.00000000000E+00  0.22192259258E+03  0.35342531988E+03  0.27506330115E+03 0.  0.
         25    1    3    3    0    0 -0.44653764836E+02  0.42193912146E+02  0.75992766095E+02  0.15475524364E+03  0.12000000000E+03 0.  0.
         25    1    3    3    0    0  0.44653764836E+02 -0.42193912146E+02  0.14592982648E+03  0.19867007624E+03  0.12000000000E+03 0.  0.
<mgrwt>
<rscale>  0 0.27506330E+03</rscale>
<asrwt>0</asrwt>
<pdfrwt beam="1">  1        1 0.44257531E-01 0.27506330E+03</pdfrwt>
<pdfrwt beam="2">  1       -1 0.10115595E-01 0.27506330E+03</pdfrwt>
<totfact> 0.54963394E+03</totfact>
</mgrwt>
</event>
<event>
 5    1  0.1139158E+001  0.2747064E+03  0.7818608E-02  0.1098616E+00
         -1   -1    0    0    0  501 -0.00000000000E+00  0.00000000000E+00  0.21195949754E+02  0.21195949754E+02  0.00000000000E+00 0.  1.
          1   -1    0    0  501    0  0.00000000000E+00 -0.00000000000E+00 -0.89007109166E+03  0.89007109166E+03  0.00000000000E+00 0.  1.
         35    2    1    2    0    0  0.00000000000E+00  0.00000000000E+00 -0.86887514190E+03  0.91126704141E+03  0.27470640426E+03 0.  0.
         25    1    3    3    0    0  0.51776829131E+02 -0.18507755652E+01 -0.29441873669E+03  0.32212832523E+03  0.12000000000E+03 0.  0.
         25    1    3    3    0    0 -0.51776829131E+02  0.18507755652E+01 -0.57445640521E+03  0.58913871617E+03  0.12000000000E+03 0.  0.
<mgrwt>
<rscale>  0 0.27470640E+03</rscale>
<asrwt>0</asrwt>
<pdfrwt beam="1">  1        1 0.13693399E+00 0.27470640E+03</pdfrwt>
<pdfrwt beam="2">  1       -1 0.32609158E-02 0.27470640E+03</pdfrwt>
<totfact> 0.64738399E+03</totfact>
</mgrwt>
</event>
<event>
 5    1  0.1139158E+001  0.2751681E+03  0.7818608E-02  0.1098358E+00
          2   -1    0    0  501    0  0.00000000000E+00  0.00000000000E+00  0.93434356804E+02  0.93434356804E+02  0.00000000000E+00 0. -1.
         -2   -1    0    0    0  501 -0.00000000000E+00 -0.00000000000E+00 -0.20259538477E+03  0.20259538477E+03  0.00000000000E+00 0. -1.
         35    2    1    2    0    0  0.00000000000E+00  0.00000000000E+00 -0.10916102796E+03  0.29602974157E+03  0.27516809021E+03 0.  0.
         25    1    3    3    0    0 -0.10325325031E+02  0.28430935025E+02 -0.11925868495E+03  0.17186495961E+03  0.12000000000E+03 0.  0.
         25    1    3    3    0    0  0.10325325031E+02 -0.28430935025E+02  0.10097656991E+02  0.12416478196E+03  0.12000000000E+03 0.  0.
<mgrwt>
<rscale>  0 0.27516809E+03</rscale>
<asrwt>0</asrwt>
<pdfrwt beam="1">  1        2 0.14374517E-01 0.27516809E+03</pdfrwt>
<pdfrwt beam="2">  1       -2 0.31168520E-01 0.27516809E+03</pdfrwt>
<totfact> 0.38889571E+03</totfact>
</mgrwt>
</event>
<event>
 5    1  0.1139158E+001  0.2746350E+03  0.7818608E-02  0.1098656E+00
         -2   -1    0    0    0  501 -0.00000000000E+00  0.00000000000E+00  0.50534703243E+02  0.50534703243E+02  0.00000000000E+00 0. -1.
          2   -1    0    0  501    0  0.00000000000E+00 -0.00000000000E+00 -0.37313170259E+03  0.37313170259E+03  0.00000000000E+00 0. -1.
         35    2    1    2    0    0  0.00000000000E+00  0.00000000000E+00 -0.32259699934E+03  0.42366640583E+03  0.27463502953E+03 0.  0.
         25    1    3    3    0    0  0.20665793044E+02 -0.95499686721E+01 -0.64493855869E+02  0.13812217182E+03  0.12000000000E+03 0.  0.
         25    1    3    3    0    0 -0.20665793044E+02  0.95499686721E+01 -0.25810314348E+03  0.28554423401E+03  0.12000000000E+03 0.  0.
<mgrwt>
<rscale>  0 0.27463503E+03</rscale>
<asrwt>0</asrwt>
<pdfrwt beam="1">  1        2 0.57404877E-01 0.27463503E+03</pdfrwt>
<pdfrwt beam="2">  1       -2 0.77745698E-02 0.27463503E+03</pdfrwt>
<totfact> 0.84615744E+03</totfact>
</mgrwt>
</event>
<event>
 5    1  0.1139158E+001  0.2751375E+03  0.7818608E-02  0.1098375E+00
         -1   -1    0    0    0  501 -0.00000000000E+00  0.00000000000E+00  0.45396032753E+02  0.45396032753E+02  0.00000000000E+00 0. -1.
          1   -1    0    0  501    0  0.00000000000E+00 -0.00000000000E+00 -0.41689011019E+03  0.41689011019E+03  0.00000000000E+00 0. -1.
         35    2    1    2    0    0  0.00000000000E+00  0.00000000000E+00 -0.37149407744E+03  0.46228614295E+03  0.27513747180E+03 0.  0.
         25    1    3    3    0    0  0.18562900332E+02  0.46585540849E+02 -0.11041176032E+03  0.17060348971E+03  0.12000000000E+03 0.  0.
         25    1    3    3    0    0 -0.18562900332E+02 -0.46585540849E+02 -0.26108231712E+03  0.29168265323E+03  0.12000000000E+03 0.  0.
<mgrwt>
<rscale>  0 0.27513747E+03</rscale>
<asrwt>0</asrwt>
<pdfrwt beam="1">  1        1 0.64136936E-01 0.27513747E+03</pdfrwt>
<pdfrwt beam="2">  1       -1 0.69840055E-02 0.27513747E+03</pdfrwt>
<totfact> 0.60540463E+03</totfact>
</mgrwt>
</event>
<event>
 5    1  0.1139158E+001  0.2751151E+03  0.7818608E-02  0.1098387E+00
         -2   -1    0    0    0  501 -0.00000000000E+00  0.00000000000E+00  0.11919887363E+02  0.11919887363E+02  0.00000000000E+00 0.  1.
          2   -1    0    0  501    0  0.00000000000E+00 -0.00000000000E+00 -0.15874374198E+04  0.15874374198E+04  0.00000000000E+00 0.  1.
         35    2    1    2    0    0  0.00000000000E+00  0.00000000000E+00 -0.15755175324E+04  0.15993573071E+04  0.27511506858E+03 0.  0.
         25    1    3    3    0    0 -0.23887988938E+02 -0.19954634875E+02 -0.44122615484E+03  0.45831140416E+03  0.12000000000E+03 0.  0.
         25    1    3    3    0    0  0.23887988938E+02  0.19954634875E+02 -0.11342913775E+04  0.11410459030E+04  0.12000000000E+03 0.  0.
<mgrwt>
<rscale>  0 0.27511507E+03</rscale>
<asrwt>0</asrwt>
<pdfrwt beam="1">  1        2 0.24422113E+00 0.27511507E+03</pdfrwt>
<pdfrwt beam="2">  1       -2 0.18338289E-02 0.27511507E+03</pdfrwt>
<totfact> 0.10763998E+04</totfact>
</mgrwt>
</event>
<event>
 5    1  0.1139158E+001  0.2720084E+03  0.7818608E-02  0.1100136E+00
         -2   -1    0    0    0  501 -0.00000000000E+00  0.00000000000E+00  0.41754480094E+02  0.41754480094E+02  0.00000000000E+00 0.  1.
          2   -1    0    0  501    0  0.00000000000E+00 -0.00000000000E+00 -0.44299763872E+03  0.44299763872E+03  0.00000000000E+00 0.  1.
         35    2    1    2    0    0  0.00000000000E+00  0.00000000000E+00 -0.40124315863E+03  0.48475211882E+03  0.27200835346E+03 0.  0.
         25    1    3    3    0    0 -0.85458224641E+01  0.48519580134E+02 -0.12779500123E+03  0.18209542300E+03  0.12000000000E+03 0.  0.
         25    1    3    3    0    0  0.85458224641E+01 -0.48519580134E+02 -0.27344815740E+03  0.30265669582E+03  0.12000000000E+03 0.  0.
<mgrwt>
<rscale>  0 0.27200835E+03</rscale>
<asrwt>0</asrwt>
<pdfrwt beam="1">  1        2 0.68153480E-01 0.27200835E+03</pdfrwt>
<pdfrwt beam="2">  1       -2 0.64237664E-02 0.27200835E+03</pdfrwt>
<totfact> 0.94308318E+03</totfact>
</mgrwt>
</event>
<event>
 5    1  0.1139158E+001  0.2736887E+03  0.7818608E-02  0.1099187E+00
          2   -1    0    0  501    0  0.00000000000E+00  0.00000000000E+00  0.96341594915E+02  0.96341594915E+02  0.00000000000E+00 0.  1.
         -2   -1    0    0    0  501 -0.00000000000E+00 -0.00000000000E+00 -0.19437480911E+03  0.19437480911E+03  0.00000000000E+00 0.  1.
         35    2    1    2    0    0  0.00000000000E+00  0.00000000000E+00 -0.98033214194E+02  0.29071640402E+03  0.27368872188E+03 0.  0.
         25    1    3    3    0    0  0.58490593619E+02  0.30080239228E+02 -0.48337464296E+02  0.14512918655E+03  0.12000000000E+03 0.  0.
         25    1    3    3    0    0 -0.58490593619E+02 -0.30080239228E+02 -0.49695749898E+02  0.14558721747E+03  0.12000000000E+03 0.  0.
<mgrwt>
<rscale>  0 0.27368872E+03</rscale>
<asrwt>0</asrwt>
<pdfrwt beam="1">  1        2 0.14821784E-01 0.27368872E+03</pdfrwt>
<pdfrwt beam="2">  1       -2 0.29903816E-01 0.27368872E+03</pdfrwt>
<totfact> 0.40429368E+03</totfact>
</mgrwt>
</event>
<event>
 5    1  0.1139158E+001  0.2757999E+03  0.7818608E-02  0.1098005E+00
          2   -1    0    0  501    0  0.00000000000E+00  0.00000000000E+00  0.11594905539E+04  0.11594905539E+04  0.00000000000E+00 0.  1.
         -2   -1    0    0    0  501 -0.00000000000E+00 -0.00000000000E+00 -0.16400642205E+02  0.16400642205E+02  0.00000000000E+00 0.  1.
         35    2    1    2    0    0  0.00000000000E+00  0.00000000000E+00  0.11430899117E+04  0.11758911961E+04  0.27579985290E+03 0.  0.
         25    1    3    3    0    0 -0.41107365552E+02 -0.53264971289E+02  0.61186149708E+03  0.62713751624E+03  0.12000000000E+03 0.  0.
         25    1    3    3    0    0  0.41107365552E+02  0.53264971289E+02  0.53122841460E+03  0.54875367985E+03  0.12000000000E+03 0.  0.
<mgrwt>
<rscale>  0 0.27579985E+03</rscale>
<asrwt>0</asrwt>
<pdfrwt beam="1">  1        2 0.17838310E+00 0.27579985E+03</pdfrwt>
<pdfrwt beam="2">  1       -2 0.25231766E-02 0.27579985E+03</pdfrwt>
<totfact> 0.11540941E+04</totfact>
</mgrwt>
</event>
<event>
 5    1  0.1139158E+001  0.2753976E+03  0.7818608E-02  0.1098230E+00
         -3   -1    0    0    0  501 -0.00000000000E+00  0.00000000000E+00  0.26476186852E+02  0.26476186852E+02  0.00000000000E+00 0. -1.
          3   -1    0    0  501    0  0.00000000000E+00 -0.00000000000E+00 -0.71615149292E+03  0.71615149292E+03  0.00000000000E+00 0. -1.
         35    2    1    2    0    0  0.00000000000E+00  0.00000000000E+00 -0.68967530607E+03  0.74262767977E+03  0.27539760886E+03 0.  0.
         25    1    3    3    0    0 -0.57980917307E+02  0.17345247951E+02 -0.42565891321E+03  0.44637221553E+03  0.12000000000E+03 0.  0.
         25    1    3    3    0    0  0.57980917307E+02 -0.17345247951E+02 -0.26401639285E+03  0.29625546424E+03  0.12000000000E+03 0.  0.
<mgrwt>
<rscale>  0 0.27539761E+03</rscale>
<asrwt>0</asrwt>
<pdfrwt beam="1">  1        3 0.11017714E+00 0.27539761E+03</pdfrwt>
<pdfrwt beam="2">  1       -3 0.40732599E-02 0.27539761E+03</pdfrwt>
<totfact> 0.58013515E+02</totfact>
</mgrwt>
</event>
<event>
 5    1  0.1139158E+001  0.2747682E+03  0.7818608E-02  0.1098581E+00
         -2   -1    0    0    0  501 -0.00000000000E+00  0.00000000000E+00  0.43624973002E+02  0.43624973002E+02  0.00000000000E+00 0. -1.
          2   -1    0    0  501    0  0.00000000000E+00 -0.00000000000E+00 -0.43265108960E+03  0.43265108960E+03  0.00000000000E+00 0. -1.
         35    2    1    2    0    0  0.00000000000E+00  0.00000000000E+00 -0.38902611660E+03  0.47627606260E+03  0.27476820852E+03 0.  0.
         25    1    3    3    0    0  0.19789070809E+02 -0.60222533529E+02 -0.23152906518E+03  0.26837300328E+03  0.12000000000E+03 0.  0.
         25    1    3    3    0    0 -0.19789070809E+02  0.60222533529E+02 -0.15749705141E+03  0.20790305931E+03  0.12000000000E+03 0.  0.
<mgrwt>
<rscale>  0 0.27476821E+03</rscale>
<asrwt>0</asrwt>
<pdfrwt beam="1">  1        2 0.66561709E-01 0.27476821E+03</pdfrwt>
<pdfrwt beam="2">  1       -2 0.67115340E-02 0.27476821E+03</pdfrwt>
<totfact> 0.90495697E+03</totfact>
</mgrwt>
</event>
<event>
 5    1  0.1139158E+001  0.2758676E+03  0.7818608E-02  0.1097968E+00
          1   -1    0    0  501    0  0.00000000000E+00  0.00000000000E+00  0.32014593391E+04  0.32014593391E+04  0.00000000000E+00 0.  1.
         -1   -1    0    0    0  501 -0.00000000000E+00 -0.00000000000E+00 -0.59428304928E+01  0.59428304928E+01  0.00000000000E+00 0.  1.
         35    2    1    2    0    0  0.00000000000E+00  0.00000000000E+00  0.31955165086E+04  0.32074021696E+04  0.27586757824E+03 0.  0.
         25    1    3    3    0    0  0.13519144101E+02 -0.20584650017E+02  0.86066156266E+03  0.86933585024E+03  0.12000000000E+03 0.  0.
         25    1    3    3    0    0 -0.13519144101E+02  0.20584650017E+02  0.23348549459E+04  0.23380663193E+04  0.12000000000E+03 0.  0.
<mgrwt>
<rscale>  0 0.27586758E+03</rscale>
<asrwt>0</asrwt>
<pdfrwt beam="1">  1        1 0.49253083E+00 0.27586758E+03</pdfrwt>
<pdfrwt beam="2">  1       -1 0.91428417E-03 0.27586758E+03</pdfrwt>
<totfact> 0.11150227E+03</totfact>
</mgrwt>
</event>
<event>
 5    1  0.1139158E+001  0.2739715E+03  0.7818608E-02  0.1099028E+00
         -1   -1    0    0    0  501 -0.00000000000E+00  0.00000000000E+00  0.21950657972E+02  0.21950657972E+02  0.00000000000E+00 0. -1.
          1   -1    0    0  501    0  0.00000000000E+00 -0.00000000000E+00 -0.85487651247E+03  0.85487651247E+03  0.00000000000E+00 0. -1.
         35    2    1    2    0    0  0.00000000000E+00  0.00000000000E+00 -0.83292585450E+03  0.87682717044E+03  0.27397154548E+03 0.  0.
         25    1    3    3    0    0  0.22541788909E+02 -0.22209379394E+01 -0.61509701087E+03  0.62710238206E+03  0.12000000000E+03 0.  0.
         25    1    3    3    0    0 -0.22541788909E+02  0.22209379394E+01 -0.21782884363E+03  0.24972478838E+03  0.12000000000E+03 0.  0.
<mgrwt>
<rscale>  0 0.27397155E+03</rscale>
<asrwt>0</asrwt>
<pdfrwt beam="1">  1        1 0.13151945E+00 0.27397155E+03</pdfrwt>
<pdfrwt beam="2">  1       -1 0.33770246E-02 0.27397155E+03</pdfrwt>
<totfact> 0.65574719E+03</totfact>
</mgrwt>
</event>
<event>
 5    1  0.1139158E+001  0.2758278E+03  0.7818608E-02  0.1097990E+00
          1   -1    0    0  501    0  0.00000000000E+00  0.00000000000E+00  0.38137047389E+03  0.38137047389E+03  0.00000000000E+00 0.  1.
         -1   -1    0    0    0  501 -0.00000000000E+00 -0.00000000000E+00 -0.49873399096E+02  0.49873399096E+02  0.00000000000E+00 0.  1.
         35    2    1    2    0    0  0.00000000000E+00  0.00000000000E+00  0.33149707479E+03  0.43124387298E+03  0.27582778575E+03 0.  0.
         25    1    3    3    0    0 -0.20003042410E+02  0.57794523734E+02  0.11937130445E+03  0.17997176724E+03  0.12000000000E+03 0.  0.
         25    1    3    3    0    0  0.20003042410E+02 -0.57794523734E+02  0.21212577034E+03  0.25127210574E+03  0.12000000000E+03 0.  0.
<mgrwt>
<rscale>  0 0.27582779E+03</rscale>
<asrwt>0</asrwt>
<pdfrwt beam="1">  1        1 0.58672379E-01 0.27582779E+03</pdfrwt>
<pdfrwt beam="2">  1       -1 0.76728309E-02 0.27582779E+03</pdfrwt>
<totfact> 0.58821907E+03</totfact>
</mgrwt>
</event>
<event>
 5    1  0.1139158E+001  0.2742488E+03  0.7818608E-02  0.1098872E+00
         -2   -1    0    0    0  501 -0.00000000000E+00  0.00000000000E+00  0.78937577788E+02  0.78937577788E+02  0.00000000000E+00 0. -1.
          2   -1    0    0  501    0  0.00000000000E+00 -0.00000000000E+00 -0.23820219563E+03  0.23820219563E+03  0.00000000000E+00 0. -1.
         35    2    1    2    0    0  0.00000000000E+00  0.00000000000E+00 -0.15926461785E+03  0.31713977342E+03  0.27424882386E+03 0.  0.
         25    1    3    3    0    0  0.50914806925E+01 -0.54121258735E+02 -0.12363718422E+03  0.18066872210E+03  0.12000000000E+03 0.  0.
         25    1    3    3    0    0 -0.50914806925E+01  0.54121258735E+02 -0.35627433625E+02  0.13647105132E+03  0.12000000000E+03 0.  0.
<mgrwt>
<rscale>  0 0.27424882E+03</rscale>
<asrwt>0</asrwt>
<pdfrwt beam="1">  1        2 0.36646492E-01 0.27424882E+03</pdfrwt>
<pdfrwt beam="2">  1       -2 0.12144243E-01 0.27424882E+03</pdfrwt>
<totfact> 0.67651335E+03</totfact>
</mgrwt>
</event>
<event>
 5    1  0.1139158E+001  0.2777460E+03  0.7818608E-02  0.1096926E+00
         -1   -1    0    0    0  501 -0.00000000000E+00  0.00000000000E+00  0.20334800096E+03  0.20334800096E+03  0.00000000000E+00 0.  1.
          1   -1    0    0  501    0  0.00000000000E+00 -0.00000000000E+00 -0.94840897465E+02  0.94840897465E+02  0.00000000000E+00 0.  1.
         35    2    1    2    0    0  0.00000000000E+00  0.00000000000E+00  0.10850710349E+03  0.29818889842E+03  0.27774597681E+03 0.  0.
         25    1    3    3    0    0  0.45386452415E+02 -0.50033833482E+02  0.34976702120E+02  0.14207985166E+03  0.12000000000E+03 0.  0.
         25    1    3    3    0    0 -0.45386452415E+02  0.50033833482E+02  0.73530401371E+02  0.15610904676E+03  0.12000000000E+03 0.  0.
<mgrwt>
<rscale>  0 0.27774598E+03</rscale>
<asrwt>0</asrwt>
<pdfrwt beam="1">  1        1 0.14590907E-01 0.27774598E+03</pdfrwt>
<pdfrwt beam="2">  1       -1 0.31284308E-01 0.27774598E+03</pdfrwt>
<totfact> 0.36570564E+03</totfact>
</mgrwt>
</event>
<event>
 5    1  0.1139158E+001  0.2786829E+03  0.7818608E-02  0.1096411E+00
          1   -1    0    0  501    0  0.00000000000E+00  0.00000000000E+00  0.65112445505E+03  0.65112445505E+03  0.00000000000E+00 0.  1.
         -1   -1    0    0    0  501 -0.00000000000E+00 -0.00000000000E+00 -0.29819240580E+02  0.29819240580E+02  0.00000000000E+00 0.  1.
         35    2    1    2    0    0  0.00000000000E+00  0.00000000000E+00  0.62130521447E+03  0.68094369563E+03  0.27868287908E+03 0.  0.
         25    1    3    3    0    0  0.23116284752E+02  0.65072395384E+02  0.34907422624E+03  0.37552842062E+03  0.12000000000E+03 0.  0.
         25    1    3    3    0    0 -0.23116284752E+02 -0.65072395384E+02  0.27223098823E+03  0.30541527502E+03  0.12000000000E+03 0.  0.
<mgrwt>
<rscale>  0 0.27868288E+03</rscale>
<asrwt>0</asrwt>
<pdfrwt beam="1">  1        1 0.10017298E+00 0.27868288E+03</pdfrwt>
<pdfrwt beam="2">  1       -1 0.45875760E-02 0.27868288E+03</pdfrwt>
<totfact> 0.62567999E+03</totfact>
</mgrwt>
</event>
<event>
 5    1  0.1139158E+001  0.2743132E+03  0.7818608E-02  0.1098836E+00
          2   -1    0    0  501    0  0.00000000000E+00  0.00000000000E+00  0.74643418978E+03  0.74643418978E+03  0.00000000000E+00 0. -1.
         -2   -1    0    0    0  501 -0.00000000000E+00 -0.00000000000E+00 -0.25202405966E+02  0.25202405966E+02  0.00000000000E+00 0. -1.
         35    2    1    2    0    0  0.00000000000E+00  0.00000000000E+00  0.72123178382E+03  0.77163659575E+03  0.27431323320E+03 0.  0.
         25    1    3    3    0    0 -0.35252524968E+01 -0.34340655498E+02  0.20098774712E+03  0.23661737578E+03  0.12000000000E+03 0.  0.
         25    1    3    3    0    0  0.35252524968E+01  0.34340655498E+02  0.52024403669E+03  0.53501921997E+03  0.12000000000E+03 0.  0.
<mgrwt>
<rscale>  0 0.27431323E+03</rscale>
<asrwt>0</asrwt>
<pdfrwt beam="1">  1        2 0.11483601E+00 0.27431323E+03</pdfrwt>
<pdfrwt beam="2">  1       -2 0.38772938E-02 0.27431323E+03</pdfrwt>
<totfact> 0.11115954E+04</totfact>
</mgrwt>
</event>
<event>
 5    1  0.1139158E+001  0.2752683E+03  0.7818608E-02  0.1098302E+00
          1   -1    0    0  501    0  0.00000000000E+00  0.00000000000E+00  0.17626255778E+03  0.17626255778E+03  0.00000000000E+00 0. -1.
         -1   -1    0    0    0  501 -0.00000000000E+00 -0.00000000000E+00 -0.10747127089E+03  0.10747127089E+03  0.00000000000E+00 0. -1.
         35    2    1    2    0    0  0.00000000000E+00  0.00000000000E+00  0.68791286890E+02  0.28373382867E+03  0.27526831343E+03 0.  0.
         25    1    3    3    0    0 -0.44757822591E+02  0.10017651113E+02  0.85306372952E+02  0.15421022431E+03  0.12000000000E+03 0.  0.
         25    1    3    3    0    0  0.44757822591E+02 -0.10017651113E+02 -0.16515086062E+02  0.12952360435E+03  0.12000000000E+03 0.  0.
<mgrwt>
<rscale>  0 0.27526831E+03</rscale>
<asrwt>0</asrwt>
<pdfrwt beam="1">  1        1 0.27117317E-01 0.27526831E+03</pdfrwt>
<pdfrwt beam="2">  1       -1 0.16534042E-01 0.27526831E+03</pdfrwt>
<totfact> 0.47053236E+03</totfact>
</mgrwt>
</event>
<event>
 5    1  0.1139158E+001  0.2746502E+03  0.7818608E-02  0.1098647E+00
          2   -1    0    0  501    0  0.00000000000E+00  0.00000000000E+00  0.44615333868E+03  0.44615333868E+03  0.00000000000E+00 0. -1.
         -2   -1    0    0    0  501 -0.00000000000E+00 -0.00000000000E+00 -0.42268380507E+02  0.42268380507E+02  0.00000000000E+00 0. -1.
         35    2    1    2    0    0  0.00000000000E+00  0.00000000000E+00  0.40388495817E+03  0.48842171918E+03  0.27465017082E+03 0.  0.
         25    1    3    3    0    0 -0.44074504553E+02  0.31609736056E+02  0.13269117497E+03  0.18694567467E+03  0.12000000000E+03 0.  0.
         25    1    3    3    0    0  0.44074504553E+02 -0.31609736056E+02  0.27119378320E+03  0.30147604451E+03  0.12000000000E+03 0.  0.
<mgrwt>
<rscale>  0 0.27465017E+03</rscale>
<asrwt>0</asrwt>
<pdfrwt beam="1">  1        2 0.68638972E-01 0.27465017E+03</pdfrwt>
<pdfrwt beam="2">  1       -2 0.65028281E-02 0.27465017E+03</pdfrwt>
<totfact> 0.91862814E+03</totfact>
</mgrwt>
</event>
<event>
 5    1  0.1139158E+001  0.2664680E+03  0.7818608E-02  0.1103318E+00
         -1   -1    0    0    0  501 -0.00000000000E+00  0.00000000000E+00  0.23818150196E+02  0.23818150196E+02  0.00000000000E+00 0. -1.
          1   -1    0    0  501    0  0.00000000000E+00 -0.00000000000E+00 -0.74528447552E+03  0.74528447552E+03  0.00000000000E+00 0. -1.
         35    2    1    2    0    0  0.00000000000E+00  0.00000000000E+00 -0.72146632533E+03  0.76910262572E+03  0.26646799115E+03 0.  0.
         25    1    3    3    0    0  0.15346084714E+02 -0.42270758167E+01 -0.20008534049E+03  0.23385361653E+03  0.12000000000E+03 0.  0.
         25    1    3    3    0    0 -0.15346084714E+02  0.42270758167E+01 -0.52138098484E+03  0.53524900919E+03  0.12000000000E+03 0.  0.
<mgrwt>
<rscale>  0 0.26646799E+03</rscale>
<asrwt>0</asrwt>
<pdfrwt beam="1">  1        1 0.11465915E+00 0.26646799E+03</pdfrwt>
<pdfrwt beam="2">  1       -1 0.36643307E-02 0.26646799E+03</pdfrwt>
<totfact> 0.71704115E+03</totfact>
</mgrwt>
</event>
<event>
 5    1  0.1139158E+001  0.2759375E+03  0.7818608E-02  0.1097929E+00
          1   -1    0    0  501    0  0.00000000000E+00  0.00000000000E+00  0.14139509512E+04  0.14139509512E+04  0.00000000000E+00 0. -1.
         -1   -1    0    0    0  501 -0.00000000000E+00 -0.00000000000E+00 -0.13462544378E+02  0.13462544378E+02  0.00000000000E+00 0. -1.
         35    2    1    2    0    0  0.00000000000E+00  0.00000000000E+00  0.14004884068E+04  0.14274134955E+04  0.27593751053E+03 0.  0.
         25    1    3    3    0    0  0.23669676097E+02  0.63789327188E+02  0.68752503434E+03  0.70122749852E+03  0.12000000000E+03 0.  0.
         25    1    3    3    0    0 -0.23669676097E+02 -0.63789327188E+02  0.71296337244E+03  0.72618599703E+03  0.12000000000E+03 0.  0.
<mgrwt>
<rscale>  0 0.27593751E+03</rscale>
<asrwt>0</asrwt>
<pdfrwt beam="1">  1        1 0.21753080E+00 0.27593751E+03</pdfrwt>
<pdfrwt beam="2">  1       -1 0.20711618E-02 0.27593751E+03</pdfrwt>
<totfact> 0.53211607E+03</totfact>
</mgrwt>
</event>
<event>
 5    1  0.1139158E+001  0.2759645E+03  0.7818608E-02  0.1097914E+00
          1   -1    0    0  501    0  0.00000000000E+00  0.00000000000E+00  0.10195178596E+04  0.10195178596E+04  0.00000000000E+00 0. -1.
         -1   -1    0    0    0  501 -0.00000000000E+00 -0.00000000000E+00 -0.18674607481E+02  0.18674607481E+02  0.00000000000E+00 0. -1.
         35    2    1    2    0    0  0.00000000000E+00  0.00000000000E+00  0.10008432522E+04  0.10381924671E+04  0.27596446038E+03 0.  0.
         25    1    3    3    0    0 -0.55199276777E+01  0.17428252482E+02  0.74725583954E+03  0.75705052890E+03  0.12000000000E+03 0.  0.
         25    1    3    3    0    0  0.55199276777E+01 -0.17428252482E+02  0.25358741262E+03  0.28114193822E+03  0.12000000000E+03 0.  0.
<mgrwt>
<rscale>  0 0.27596446E+03</rscale>
<asrwt>0</asrwt>
<pdfrwt beam="1">  1        1 0.15684886E+00 0.27596446E+03</pdfrwt>
<pdfrwt beam="2">  1       -1 0.28730173E-02 0.27596446E+03</pdfrwt>
<totfact> 0.62144590E+03</totfact>
</mgrwt>
</event>
<event>
 5    1  0.1139158E+001  0.2838473E+03  0.7818608E-02  0.1093606E+00
          2   -1    0    0  501    0  0.00000000000E+00  0.00000000000E+00  0.96402942136E+03  0.96402942136E+03  0.00000000000E+00 0. -1.
         -2   -1    0    0    0  501 -0.00000000000E+00 -0.00000000000E+00 -0.20893887838E+02  0.20893887838E+02  0.00000000000E+00 0. -1.
         35    2    1    2    0    0  0.00000000000E+00  0.00000000000E+00  0.94313553353E+03  0.98492330920E+03  0.28384730122E+03 0.  0.
         25    1    3    3    0    0  0.64426930196E+02  0.38587043419E+02  0.43643193689E+03  0.45881654808E+03  0.12000000000E+03 0.  0.
         25    1    3    3    0    0 -0.64426930196E+02 -0.38587043419E+02  0.50670359663E+03  0.52610676112E+03  0.12000000000E+03 0.  0.
<mgrwt>
<rscale>  0 0.28384730E+03</rscale>
<asrwt>0</asrwt>
<pdfrwt beam="1">  1        2 0.14831218E+00 0.28384730E+03</pdfrwt>
<pdfrwt beam="2">  1       -2 0.32144450E-02 0.28384730E+03</pdfrwt>
<totfact> 0.10546426E+04</totfact>
</mgrwt>
</event>
<event>
 5    1  0.1139158E+001  0.2784556E+03  0.7818608E-02  0.1096535E+00
          1   -1    0    0  501    0  0.00000000000E+00  0.00000000000E+00  0.11742061297E+03  0.11742061297E+03  0.00000000000E+00 0.  1.
         -1   -1    0    0    0  501 -0.00000000000E+00 -0.00000000000E+00 -0.16508498239E+03  0.16508498239E+03  0.00000000000E+00 0.  1.
         35    2    1    2    0    0  0.00000000000E+00  0.00000000000E+00 -0.47664369420E+02  0.28250559536E+03  0.27845559664E+03 0.  0.
         25    1    3    3    0    0 -0.64233994636E+02 -0.69207881251E+01  0.50507489514E+01  0.13637966652E+03  0.12000000000E+03 0.  0.
         25    1    3    3    0    0  0.64233994636E+02  0.69207881251E+01 -0.52715118372E+02  0.14612592884E+03  0.12000000000E+03 0.  0.
<mgrwt>
<rscale>  0 0.27845560E+03</rscale>
<asrwt>0</asrwt>
<pdfrwt beam="1">  1        1 0.18064710E-01 0.27845560E+03</pdfrwt>
<pdfrwt beam="2">  1       -1 0.25397689E-01 0.27845560E+03</pdfrwt>
<totfact> 0.39343262E+03</totfact>
</mgrwt>
</event>
<event>
 5    1  0.1139158E+001  0.2748995E+03  0.7818608E-02  0.1098508E+00
         -1   -1    0    0    0  501 -0.00000000000E+00  0.00000000000E+00  0.29151872533E+03  0.29151872533E+03  0.00000000000E+00 0. -1.
          1   -1    0    0  501    0  0.00000000000E+00 -0.00000000000E+00 -0.64806920219E+02  0.64806920219E+02  0.00000000000E+00 0. -1.
         35    2    1    2    0    0  0.00000000000E+00  0.00000000000E+00  0.22671180511E+03  0.35632564555E+03  0.27489947817E+03 0.  0.
         25    1    3    3    0    0 -0.23963504512E+02 -0.16165955656E+02  0.19173970525E+03  0.22803443213E+03  0.12000000000E+03 0.  0.
         25    1    3    3    0    0  0.23963504512E+02  0.16165955656E+02  0.34972099865E+02  0.12829121342E+03  0.12000000000E+03 0.  0.
<mgrwt>
<rscale>  0 0.27489948E+03</rscale>
<asrwt>0</asrwt>
<pdfrwt beam="1">  1        1 0.99702955E-02 0.27489948E+03</pdfrwt>
<pdfrwt beam="2">  1       -1 0.44849034E-01 0.27489948E+03</pdfrwt>
<totfact> 0.32205392E+03</totfact>
</mgrwt>
</event>
<event>
 5    1  0.1139158E+001  0.2751142E+03  0.7818608E-02  0.1098388E+00
         -2   -1    0    0    0  501 -0.00000000000E+00  0.00000000000E+00  0.72264441384E+01  0.72264441384E+01  0.00000000000E+00 0.  1.
          2   -1    0    0  501    0  0.00000000000E+00 -0.00000000000E+00 -0.26184330199E+04  0.26184330199E+04  0.00000000000E+00 0.  1.
         35    2    1    2    0    0  0.00000000000E+00  0.00000000000E+00 -0.26112065757E+04  0.26256594640E+04  0.27511423044E+03 0.  0.
         25    1    3    3    0    0 -0.33671281236E+02 -0.18538712446E+01 -0.75035172067E+03  0.76063453559E+03  0.12000000000E+03 0.  0.
         25    1    3    3    0    0  0.33671281236E+02  0.18538712446E+01 -0.18608548551E+04  0.18650249284E+04  0.12000000000E+03 0.  0.
<mgrwt>
<rscale>  0 0.27511423E+03</rscale>
<asrwt>0</asrwt>
<pdfrwt beam="1">  1        2 0.40283592E+00 0.27511423E+03</pdfrwt>
<pdfrwt beam="2">  1       -2 0.11117604E-02 0.27511423E+03</pdfrwt>
<totfact> 0.63040300E+03</totfact>
</mgrwt>
</event>
<event>
 5    1  0.1139158E+001  0.2752277E+03  0.7818608E-02  0.1098324E+00
         -1   -1    0    0    0  501 -0.00000000000E+00  0.00000000000E+00  0.20328723646E+04  0.20328723646E+04  0.00000000000E+00 0. -1.
          1   -1    0    0  501    0  0.00000000000E+00 -0.00000000000E+00 -0.93156726598E+01  0.93156726598E+01  0.00000000000E+00 0. -1.
         35    2    1    2    0    0  0.00000000000E+00  0.00000000000E+00  0.20235566920E+04  0.20421880373E+04  0.27522771305E+03 0.  0.
         25    1    3    3    0    0 -0.40035296580E+02  0.49179523715E+02  0.11803482990E+04  0.11881260697E+04  0.12000000000E+03 0.  0.
         25    1    3    3    0    0  0.40035296580E+02 -0.49179523715E+02  0.84320839298E+03  0.85406196761E+03  0.12000000000E+03 0.  0.
<mgrwt>
<rscale>  0 0.27522771E+03</rscale>
<asrwt>0</asrwt>
<pdfrwt beam="1">  1        1 0.14331820E-02 0.27522771E+03</pdfrwt>
<pdfrwt beam="2">  1       -1 0.31274924E+00 0.27522771E+03</pdfrwt>
<totfact> 0.31194677E+02</totfact>
</mgrwt>
</event>
<event>
 5    1  0.1139158E+001  0.2753021E+03  0.7818608E-02  0.1098283E+00
         -2   -1    0    0    0  501 -0.00000000000E+00  0.00000000000E+00  0.55009509002E+02  0.55009509002E+02  0.00000000000E+00 0. -1.
          2   -1    0    0  501    0  0.00000000000E+00 -0.00000000000E+00 -0.34444606579E+03  0.34444606579E+03  0.00000000000E+00 0. -1.
         35    2    1    2    0    0  0.00000000000E+00  0.00000000000E+00 -0.28943655679E+03  0.39945557479E+03  0.27530208104E+03 0.  0.
         25    1    3    3    0    0  0.23206953977E+02 -0.35980099279E+02 -0.69118902558E+02  0.14495017402E+03  0.12000000000E+03 0.  0.
         25    1    3    3    0    0 -0.23206953977E+02  0.35980099279E+02 -0.22031765423E+03  0.25450540077E+03  0.12000000000E+03 0.  0.
<mgrwt>
<rscale>  0 0.27530208E+03</rscale>
<asrwt>0</asrwt>
<pdfrwt beam="1">  1        2 0.52991702E-01 0.27530208E+03</pdfrwt>
<pdfrwt beam="2">  1       -2 0.84630014E-02 0.27530208E+03</pdfrwt>
<totfact> 0.80800155E+03</totfact>
</mgrwt>
</event>
<event>
 5    1  0.1139158E+001  0.2746590E+03  0.7818608E-02  0.1098642E+00
          1   -1    0    0  501    0  0.00000000000E+00  0.00000000000E+00  0.53564127733E+03  0.53564127733E+03  0.00000000000E+00 0. -1.
         -1   -1    0    0    0  501 -0.00000000000E+00 -0.00000000000E+00 -0.35208999851E+02  0.35208999851E+02  0.00000000000E+00 0. -1.
         35    2    1    2    0    0  0.00000000000E+00  0.00000000000E+00  0.50043227748E+03  0.57085027719E+03  0.27465901517E+03 0.  0.
         25    1    3    3    0    0  0.41613757574E+02  0.51182110741E+02  0.27182350226E+03  0.30436709688E+03  0.12000000000E+03 0.  0.
         25    1    3    3    0    0 -0.41613757574E+02 -0.51182110741E+02  0.22860877522E+03  0.26648318031E+03  0.12000000000E+03 0.  0.
<mgrwt>
<rscale>  0 0.27465902E+03</rscale>
<asrwt>0</asrwt>
<pdfrwt beam="1">  1        1 0.82406344E-01 0.27465902E+03</pdfrwt>
<pdfrwt beam="2">  1       -1 0.54167696E-02 0.27465902E+03</pdfrwt>
<totfact> 0.63888832E+03</totfact>
</mgrwt>
</event>
<event>
 5    1  0.1139158E+001  0.2752896E+03  0.7818608E-02  0.1098290E+00
          2   -1    0    0  501    0  0.00000000000E+00  0.00000000000E+00  0.14975980210E+04  0.14975980210E+04  0.00000000000E+00 0.  1.
         -2   -1    0    0    0  501 -0.00000000000E+00 -0.00000000000E+00 -0.12650989830E+02  0.12650989830E+02  0.00000000000E+00 0.  1.
         35    2    1    2    0    0  0.00000000000E+00  0.00000000000E+00  0.14849470312E+04  0.15102490109E+04  0.27528964625E+03 0.  0.
         25    1    3    3    0    0 -0.44283674810E+02  0.23580485675E+02  0.98958971879E+03  0.99810064357E+03  0.12000000000E+03 0.  0.
         25    1    3    3    0    0  0.44283674810E+02 -0.23580485675E+02  0.49535731241E+03  0.51214836729E+03  0.12000000000E+03 0.  0.
<mgrwt>
<rscale>  0 0.27528965E+03</rscale>
<asrwt>0</asrwt>
<pdfrwt beam="1">  1        2 0.23039956E+00 0.27528965E+03</pdfrwt>
<pdfrwt beam="2">  1       -2 0.19463073E-02 0.27528965E+03</pdfrwt>
<totfact> 0.11011926E+04</totfact>
</mgrwt>
</event>
<event>
 5    1  0.1139158E+001  0.2747005E+03  0.7818608E-02  0.1098619E+00
          2   -1    0    0  501    0  0.00000000000E+00  0.00000000000E+00  0.28057052345E+04  0.28057052345E+04  0.00000000000E+00 0.  1.
         -2   -1    0    0    0  501 -0.00000000000E+00 -0.00000000000E+00 -0.67238321593E+01  0.67238321593E+01  0.00000000000E+00 0.  1.
         35    2    1    2    0    0  0.00000000000E+00  0.00000000000E+00  0.27989814024E+04  0.28124290667E+04  0.27470049935E+03 0.  0.
         25    1    3    3    0    0  0.85805507812E+01  0.20931534020E+02  0.75576033100E+03  0.76556216787E+03  0.12000000000E+03 0.  0.
         25    1    3    3    0    0 -0.85805507812E+01 -0.20931534020E+02  0.20432210714E+04  0.20468668988E+04  0.12000000000E+03 0.  0.
<mgrwt>
<rscale>  0 0.27470050E+03</rscale>
<asrwt>0</asrwt>
<pdfrwt beam="1">  1        2 0.43164602E+00 0.27470050E+03</pdfrwt>
<pdfrwt beam="2">  1       -2 0.10344380E-02 0.27470050E+03</pdfrwt>
<totfact> 0.54885085E+03</totfact>
</mgrwt>
</event>
<event>
 5    1  0.1139158E+001  0.2746213E+03  0.7818608E-02  0.1098663E+00
          2   -1    0    0  501    0  0.00000000000E+00  0.00000000000E+00  0.16167183453E+02  0.16167183453E+02  0.00000000000E+00 0. -1.
         -2   -1    0    0    0  501 -0.00000000000E+00 -0.00000000000E+00 -0.11662026138E+04  0.11662026138E+04  0.00000000000E+00 0. -1.
         35    2    1    2    0    0  0.00000000000E+00  0.00000000000E+00 -0.11500354304E+04  0.11823697973E+04  0.27462127813E+03 0.  0.
         25    1    3    3    0    0  0.39168275881E+00  0.25727596079E+02 -0.30988590369E+03  0.33330366923E+03  0.12000000000E+03 0.  0.
         25    1    3    3    0    0 -0.39168275881E+00 -0.25727596079E+02 -0.84014952670E+03  0.84906612806E+03  0.12000000000E+03 0.  0.
<mgrwt>
<rscale>  0 0.27462128E+03</rscale>
<asrwt>0</asrwt>
<pdfrwt beam="1">  1        2 0.24872589E-02 0.27462128E+03</pdfrwt>
<pdfrwt beam="2">  1       -2 0.17941579E+00 0.27462128E+03</pdfrwt>
<totfact> 0.79570379E+02</totfact>
</mgrwt>
</event>
<event>
 5    1  0.1139158E+001  0.2754288E+03  0.7818608E-02  0.1098212E+00
          3   -1    0    0  501    0  0.00000000000E+00  0.00000000000E+00  0.15783687327E+03  0.15783687327E+03  0.00000000000E+00 0. -1.
         -3   -1    0    0    0  501 -0.00000000000E+00 -0.00000000000E+00 -0.12015736396E+03  0.12015736396E+03  0.00000000000E+00 0. -1.
         35    2    1    2    0    0  0.00000000000E+00  0.00000000000E+00  0.37679509310E+02  0.27799423722E+03  0.27542884836E+03 0.  0.
         25    1    3    3    0    0  0.61706906865E+02  0.25620794230E+02  0.28988014569E+02  0.14037261998E+03  0.12000000000E+03 0.  0.
         25    1    3    3    0    0 -0.61706906865E+02 -0.25620794230E+02  0.86914947411E+01  0.13762161724E+03  0.12000000000E+03 0.  0.
<mgrwt>
<rscale>  0 0.27542885E+03</rscale>
<asrwt>0</asrwt>
<pdfrwt beam="1">  1        3 0.24282596E-01 0.27542885E+03</pdfrwt>
<pdfrwt beam="2">  1       -3 0.18485748E-01 0.27542885E+03</pdfrwt>
<totfact> 0.10393885E+03</totfact>
</mgrwt>
</event>
<event>
 5    1  0.1139158E+001  0.2747897E+03  0.7818608E-02  0.1098569E+00
         -1   -1    0    0    0  501 -0.00000000000E+00  0.00000000000E+00  0.21526836849E+03  0.21526836849E+03  0.00000000000E+00 0. -1.
          1   -1    0    0  501    0  0.00000000000E+00 -0.00000000000E+00 -0.87692156271E+02  0.87692156271E+02  0.00000000000E+00 0. -1.
         35    2    1    2    0    0  0.00000000000E+00  0.00000000000E+00  0.12757621222E+03  0.30296052476E+03  0.27478971895E+03 0.  0.
         25    1    3    3    0    0  0.18336109270E+02 -0.34222488815E+02  0.12387234373E+03  0.17678164267E+03  0.12000000000E+03 0.  0.
         25    1    3    3    0    0 -0.18336109270E+02  0.34222488815E+02  0.37038684880E+01  0.12617888209E+03  0.12000000000E+03 0.  0.
<mgrwt>
<rscale>  0 0.27478972E+03</rscale>
<asrwt>0</asrwt>
<pdfrwt beam="1">  1        1 0.13491101E-01 0.27478972E+03</pdfrwt>
<pdfrwt beam="2">  1       -1 0.33118210E-01 0.27478972E+03</pdfrwt>
<totfact> 0.36758372E+03</totfact>
</mgrwt>
</event>
<event>
 5    1  0.1139158E+001  0.2745255E+03  0.7818608E-02  0.1098717E+00
         -2   -1    0    0    0  501 -0.00000000000E+00  0.00000000000E+00  0.10800755020E+02  0.10800755020E+02  0.00000000000E+00 0. -1.
          2   -1    0    0  501    0  0.00000000000E+00 -0.00000000000E+00 -0.17444214331E+04  0.17444214331E+04  0.00000000000E+00 0. -1.
         35    2    1    2    0    0  0.00000000000E+00  0.00000000000E+00 -0.17336206780E+04  0.17552221881E+04  0.27452554381E+03 0.  0.
         25    1    3    3    0    0  0.80487730278E+01  0.61048856239E+02 -0.70388834453E+03  0.71669417966E+03  0.12000000000E+03 0.  0.
         25    1    3    3    0    0 -0.80487730278E+01 -0.61048856239E+02 -0.10297323335E+04  0.10385280084E+04  0.12000000000E+03 0.  0.
<mgrwt>
<rscale>  0 0.27452554E+03</rscale>
<asrwt>0</asrwt>
<pdfrwt beam="1">  1        2 0.26837238E+00 0.27452554E+03</pdfrwt>
<pdfrwt beam="2">  1       -2 0.16616555E-02 0.27452554E+03</pdfrwt>
<totfact> 0.10278310E+04</totfact>
</mgrwt>
</event>
<event>
 5    1  0.1139158E+001  0.2777755E+03  0.7818608E-02  0.1096910E+00
          2   -1    0    0  501    0  0.00000000000E+00  0.00000000000E+00  0.11611448382E+03  0.11611448382E+03  0.00000000000E+00 0.  1.
         -2   -1    0    0    0  501 -0.00000000000E+00 -0.00000000000E+00 -0.16612749085E+03  0.16612749085E+03  0.00000000000E+00 0.  1.
         35    2    1    2    0    0  0.00000000000E+00  0.00000000000E+00 -0.50013007030E+02  0.28224197466E+03  0.27777550538E+03 0.  0.
         25    1    3    3    0    0 -0.55133699458E+02 -0.15887712935E+02  0.15606988001E+02  0.13392431561E+03  0.12000000000E+03 0.  0.
         25    1    3    3    0    0  0.55133699458E+02  0.15887712935E+02 -0.65619995031E+02  0.14831765905E+03  0.12000000000E+03 0.  0.
<mgrwt>
<rscale>  0 0.27777551E+03</rscale>
<asrwt>0</asrwt>
<pdfrwt beam="1">  1        2 0.17863767E-01 0.27777551E+03</pdfrwt>
<pdfrwt beam="2">  1       -2 0.25558076E-01 0.27777551E+03</pdfrwt>
<totfact> 0.43049180E+03</totfact>
</mgrwt>
</event>
<event>
 5    1  0.1139158E+001  0.2748567E+03  0.7818608E-02  0.1098532E+00
          2   -1    0    0  501    0  0.00000000000E+00  0.00000000000E+00  0.94290353304E+02  0.94290353304E+02  0.00000000000E+00 0.  1.
         -2   -1    0    0    0  501 -0.00000000000E+00 -0.00000000000E+00 -0.20030205376E+03  0.20030205376E+03  0.00000000000E+00 0.  1.
         35    2    1    2    0    0  0.00000000000E+00  0.00000000000E+00 -0.10601170045E+03  0.29459240706E+03  0.27485670024E+03 0.  0.
         25    1    3    3    0    0  0.23747262012E+02 -0.41097234900E+02 -0.10366074820E+03  0.16552481955E+03  0.12000000000E+03 0.  0.
         25    1    3    3    0    0 -0.23747262012E+02  0.41097234900E+02 -0.23509522515E+01  0.12906758751E+03  0.12000000000E+03 0.  0.
<mgrwt>
<rscale>  0 0.27485670E+03</rscale>
<asrwt>0</asrwt>
<pdfrwt beam="1">  1        2 0.14506208E-01 0.27485670E+03</pdfrwt>
<pdfrwt beam="2">  1       -2 0.30815700E-01 0.27485670E+03</pdfrwt>
<totfact> 0.39276117E+03</totfact>
</mgrwt>
</event>
<event>
 5    1  0.1139158E+001  0.2751374E+03  0.7818608E-02  0.1098375E+00
          2   -1    0    0  501    0  0.00000000000E+00  0.00000000000E+00  0.17489088851E+04  0.17489088851E+04  0.00000000000E+00 0. -1.
         -2   -1    0    0    0  501 -0.00000000000E+00 -0.00000000000E+00 -0.10821120386E+02  0.10821120386E+02  0.00000000000E+00 0. -1.
         35    2    1    2    0    0  0.00000000000E+00  0.00000000000E+00  0.17380877647E+04  0.17597300055E+04  0.27513744631E+03 0.  0.
         25    1    3    3    0    0 -0.56649393625E+02 -0.17816286867E+01  0.63730449511E+03  0.65097568886E+03  0.12000000000E+03 0.  0.
         25    1    3    3    0    0  0.56649393625E+02  0.17816286867E+01  0.11007832696E+04  0.11087543166E+04  0.12000000000E+03 0.  0.
<mgrwt>
<rscale>  0 0.27513745E+03</rscale>
<asrwt>0</asrwt>
<pdfrwt beam="1">  1        2 0.26906268E+00 0.27513745E+03</pdfrwt>
<pdfrwt beam="2">  1       -2 0.16647891E-02 0.27513745E+03</pdfrwt>
<totfact> 0.10194803E+04</totfact>
</mgrwt>
</event>
<event>
 5    1  0.1139158E+001  0.2767323E+03  0.7818608E-02  0.1097487E+00
         -2   -1    0    0    0  501 -0.00000000000E+00  0.00000000000E+00  0.35620370493E+02  0.35620370493E+02  0.00000000000E+00 0. -1.
          2   -1    0    0  501    0  0.00000000000E+00 -0.00000000000E+00 -0.53747859858E+03  0.53747859858E+03  0.00000000000E+00 0. -1.
         35    2    1    2    0    0  0.00000000000E+00  0.00000000000E+00 -0.50185822809E+03  0.57309896907E+03  0.27673226638E+03 0.  0.
         25    1    3    3    0    0 -0.44468810381E+02 -0.20682419086E+02 -0.15075095484E+03  0.19882426396E+03  0.12000000000E+03 0.  0.
         25    1    3    3    0    0  0.44468810381E+02  0.20682419086E+02 -0.35110727325E+03  0.37427470511E+03  0.12000000000E+03 0.  0.
<mgrwt>
<rscale>  0 0.27673227E+03</rscale>
<asrwt>0</asrwt>
<pdfrwt beam="1">  1        2 0.82689020E-01 0.27673227E+03</pdfrwt>
<pdfrwt beam="2">  1       -2 0.54800567E-02 0.27673227E+03</pdfrwt>
<totfact> 0.97059039E+03</totfact>
</mgrwt>
</event>
<event>
 5    1  0.1139158E+001  0.2747089E+03  0.7818608E-02  0.1098614E+00
         -2   -1    0    0    0  501 -0.00000000000E+00  0.00000000000E+00  0.49315567738E+02  0.49315567738E+02  0.00000000000E+00 0.  1.
          2   -1    0    0  501    0  0.00000000000E+00 -0.00000000000E+00 -0.38256170181E+03  0.38256170181E+03  0.00000000000E+00 0.  1.
         35    2    1    2    0    0  0.00000000000E+00  0.00000000000E+00 -0.33324613407E+03  0.43187726955E+03  0.27470891882E+03 0.  0.
         25    1    3    3    0    0 -0.50267767634E+02  0.43957943457E+02 -0.17081161654E+03  0.21917061299E+03  0.12000000000E+03 0.  0.
         25    1    3    3    0    0  0.50267767634E+02 -0.43957943457E+02 -0.16243451753E+03  0.21270665655E+03  0.12000000000E+03 0.  0.
<mgrwt>
<rscale>  0 0.27470892E+03</rscale>
<asrwt>0</asrwt>
<pdfrwt beam="1">  1        2 0.58855645E-01 0.27470892E+03</pdfrwt>
<pdfrwt beam="2">  1       -2 0.75870106E-02 0.27470892E+03</pdfrwt>
<totfact> 0.85555660E+03</totfact>
</mgrwt>
</event>
<event>
 5    1  0.1139158E+001  0.2751201E+03  0.7818608E-02  0.1098385E+00
          1   -1    0    0  501    0  0.00000000000E+00  0.00000000000E+00  0.47251464375E+03  0.47251464375E+03  0.00000000000E+00 0. -1.
         -1   -1    0    0    0  501 -0.00000000000E+00 -0.00000000000E+00 -0.40046932408E+02  0.40046932408E+02  0.00000000000E+00 0. -1.
         35    2    1    2    0    0  0.00000000000E+00  0.00000000000E+00  0.43246771134E+03  0.51256157616E+03  0.27512006107E+03 0.  0.
         25    1    3    3    0    0  0.21261964952E+02  0.15158398910E+02  0.10077132635E+03  0.15886065726E+03  0.12000000000E+03 0.  0.
         25    1    3    3    0    0 -0.21261964952E+02 -0.15158398910E+02  0.33169638500E+03  0.35370091890E+03  0.12000000000E+03 0.  0.
<mgrwt>
<rscale>  0 0.27512006E+03</rscale>
<asrwt>0</asrwt>
<pdfrwt beam="1">  1        1 0.72694557E-01 0.27512006E+03</pdfrwt>
<pdfrwt beam="2">  1       -1 0.61610669E-02 0.27512006E+03</pdfrwt>
<totfact> 0.62187479E+03</totfact>
</mgrwt>
</event>
<event>
 5    1  0.1139158E+001  0.2734931E+03  0.7818608E-02  0.1099297E+00
         -1   -1    0    0    0  501 -0.00000000000E+00  0.00000000000E+00  0.50351845898E+02  0.50351845898E+02  0.00000000000E+00 0. -1.
          1   -1    0    0  501    0  0.00000000000E+00 -0.00000000000E+00 -0.37137904271E+03  0.37137904271E+03  0.00000000000E+00 0. -1.
         35    2    1    2    0    0  0.00000000000E+00  0.00000000000E+00 -0.32102719681E+03  0.42173088861E+03  0.27349311018E+03 0.  0.
         25    1    3    3    0    0 -0.44879627984E+02 -0.22959497956E+02 -0.95853612659E+02  0.16164539775E+03  0.12000000000E+03 0.  0.
         25    1    3    3    0    0  0.44879627984E+02  0.22959497956E+02 -0.22517358415E+03  0.26008549086E+03  0.12000000000E+03 0.  0.
<mgrwt>
<rscale>  0 0.27349311E+03</rscale>
<asrwt>0</asrwt>
<pdfrwt beam="1">  1        1 0.57135237E-01 0.27349311E+03</pdfrwt>
<pdfrwt beam="2">  1       -1 0.77464378E-02 0.27349311E+03</pdfrwt>
<totfact> 0.59950793E+03</totfact>
</mgrwt>
</event>
<event>
 5    1  0.1139158E+001  0.2751901E+03  0.7818608E-02  0.1098345E+00
         -2   -1    0    0    0  501 -0.00000000000E+00  0.00000000000E+00  0.81923368134E+02  0.81923368134E+02  0.00000000000E+00 0.  1.
          2   -1    0    0  501    0  0.00000000000E+00 -0.00000000000E+00 -0.23109886109E+03  0.23109886109E+03  0.00000000000E+00 0.  1.
         35    2    1    2    0    0  0.00000000000E+00  0.00000000000E+00 -0.14917549296E+03  0.31302222923E+03  0.27519009483E+03 0.  0.
         25    1    3    3    0    0  0.62853050783E+02 -0.13459251289E+02 -0.97358297032E+02  0.16736276599E+03  0.12000000000E+03 0.  0.
         25    1    3    3    0    0 -0.62853050783E+02  0.13459251289E+02 -0.51817195928E+02  0.14565946324E+03  0.12000000000E+03 0.  0.
<mgrwt>
<rscale>  0 0.27519009E+03</rscale>
<asrwt>0</asrwt>
<pdfrwt beam="1">  1        2 0.35553671E-01 0.27519009E+03</pdfrwt>
<pdfrwt beam="2">  1       -2 0.12603595E-01 0.27519009E+03</pdfrwt>
<totfact> 0.65837679E+03</totfact>
</mgrwt>
</event>
<event>
 5    1  0.1139158E+001  0.2745203E+03  0.7818608E-02  0.1098720E+00
          2   -1    0    0  501    0  0.00000000000E+00  0.00000000000E+00  0.13351845244E+04  0.13351845244E+04  0.00000000000E+00 0.  1.
         -2   -1    0    0    0  501 -0.00000000000E+00 -0.00000000000E+00 -0.14110672256E+02  0.14110672256E+02  0.00000000000E+00 0.  1.
         35    2    1    2    0    0  0.00000000000E+00  0.00000000000E+00  0.13210738522E+04  0.13492951967E+04  0.27452031783E+03 0.  0.
         25    1    3    3    0    0  0.43726048681E+02 -0.92253183296E+01  0.41758582615E+03  0.43677797109E+03  0.12000000000E+03 0.  0.
         25    1    3    3    0    0 -0.43726048681E+02  0.92253183296E+01  0.90348802602E+03  0.91251722559E+03  0.12000000000E+03 0.  0.
<mgrwt>
<rscale>  0 0.27452032E+03</rscale>
<asrwt>0</asrwt>
<pdfrwt beam="1">  1        2 0.20541290E+00 0.27452032E+03</pdfrwt>
<pdfrwt beam="2">  1       -2 0.21708737E-02 0.27452032E+03</pdfrwt>
<totfact> 0.11482285E+04</totfact>
</mgrwt>
</event>
<event>
 5    1  0.1139158E+001  0.2741732E+03  0.7818608E-02  0.1098915E+00
         -1   -1    0    0    0  501 -0.00000000000E+00  0.00000000000E+00  0.21453834295E+03  0.21453834295E+03  0.00000000000E+00 0.  1.
          1   -1    0    0  501    0  0.00000000000E+00 -0.00000000000E+00 -0.87596154821E+02  0.87596154821E+02  0.00000000000E+00 0.  1.
         35    2    1    2    0    0  0.00000000000E+00  0.00000000000E+00  0.12694218813E+03  0.30213449777E+03  0.27417318545E+03 0.  0.
         25    1    3    3    0    0 -0.47517966631E+02  0.10198235150E+02  0.13811175641E+02  0.13020257188E+03  0.12000000000E+03 0.  0.
         25    1    3    3    0    0  0.47517966631E+02 -0.10198235150E+02  0.11313101249E+03  0.17193192589E+03  0.12000000000E+03 0.  0.
<mgrwt>
<rscale>  0 0.27417319E+03</rscale>
<asrwt>0</asrwt>
<pdfrwt beam="1">  1        1 0.13476332E-01 0.27417319E+03</pdfrwt>
<pdfrwt beam="2">  1       -1 0.33005899E-01 0.27417319E+03</pdfrwt>
<totfact> 0.37025345E+03</totfact>
</mgrwt>
</event>
<event>
 5    1  0.1139158E+001  0.2747709E+03  0.7818608E-02  0.1098580E+00
         -2   -1    0    0    0  501 -0.00000000000E+00  0.00000000000E+00  0.41976332943E+02  0.41976332943E+02  0.00000000000E+00 0.  1.
          2   -1    0    0  501    0  0.00000000000E+00 -0.00000000000E+00 -0.44965231616E+03  0.44965231616E+03  0.00000000000E+00 0.  1.
         35    2    1    2    0    0  0.00000000000E+00  0.00000000000E+00 -0.40767598322E+03  0.49162864910E+03  0.27477085240E+03 0.  0.
         25    1    3    3    0    0 -0.42047097680E+02  0.32316567467E+02 -0.27679029999E+03  0.30630897656E+03  0.12000000000E+03 0.  0.
         25    1    3    3    0    0  0.42047097680E+02 -0.32316567467E+02 -0.13088568323E+03  0.18531967254E+03  0.12000000000E+03 0.  0.
<mgrwt>
<rscale>  0 0.27477085E+03</rscale>
<asrwt>0</asrwt>
<pdfrwt beam="1">  1        2 0.69177278E-01 0.27477085E+03</pdfrwt>
<pdfrwt beam="2">  1       -2 0.64578975E-02 0.27477085E+03</pdfrwt>
<totfact> 0.92056563E+03</totfact>
</mgrwt>
</event>
<event>
 5    1  0.1139158E+001  0.2760896E+03  0.7818608E-02  0.1097844E+00
          1   -1    0    0  501    0  0.00000000000E+00  0.00000000000E+00  0.11768241878E+04  0.11768241878E+04  0.00000000000E+00 0. -1.
         -1   -1    0    0    0  501 -0.00000000000E+00 -0.00000000000E+00 -0.16193044248E+02  0.16193044248E+02  0.00000000000E+00 0. -1.
         35    2    1    2    0    0  0.00000000000E+00  0.00000000000E+00  0.11606311436E+04  0.11930172321E+04  0.27608959521E+03 0.  0.
         25    1    3    3    0    0 -0.61725256274E+02  0.28981538560E+02  0.59127224534E+03  0.60716785566E+03  0.12000000000E+03 0.  0.
         25    1    3    3    0    0  0.61725256274E+02 -0.28981538560E+02  0.56935889822E+03  0.58584937639E+03  0.12000000000E+03 0.  0.
<mgrwt>
<rscale>  0 0.27608960E+03</rscale>
<asrwt>0</asrwt>
<pdfrwt beam="1">  1        1 0.18104981E+00 0.27608960E+03</pdfrwt>
<pdfrwt beam="2">  1       -1 0.24912385E-02 0.27608960E+03</pdfrwt>
<totfact> 0.59012469E+03</totfact>
</mgrwt>
</event>
<event>
 5    1  0.1139158E+001  0.2665861E+03  0.7818608E-02  0.1103250E+00
         -1   -1    0    0    0  501 -0.00000000000E+00  0.00000000000E+00  0.15121862960E+03  0.15121862960E+03  0.00000000000E+00 0. -1.
          1   -1    0    0  501    0  0.00000000000E+00 -0.00000000000E+00 -0.11749237563E+03  0.11749237563E+03  0.00000000000E+00 0. -1.
         35    2    1    2    0    0  0.00000000000E+00  0.00000000000E+00  0.33726253971E+02  0.26871100522E+03  0.26658609139E+03 0.  0.
         25    1    3    3    0    0 -0.34756559410E+01 -0.38527010504E+02 -0.26732343526E+02  0.12888378064E+03  0.12000000000E+03 0.  0.
         25    1    3    3    0    0  0.34756559410E+01  0.38527010504E+02  0.60458597497E+02  0.13982722458E+03  0.12000000000E+03 0.  0.
<mgrwt>
<rscale>  0 0.26658609E+03</rscale>
<asrwt>0</asrwt>
<pdfrwt beam="1">  1        1 0.18075750E-01 0.26658609E+03</pdfrwt>
<pdfrwt beam="2">  1       -1 0.23264405E-01 0.26658609E+03</pdfrwt>
<totfact> 0.45405948E+03</totfact>
</mgrwt>
</event>
<event>
 5    1  0.1139158E+001  0.2763444E+03  0.7818608E-02  0.1097702E+00
         -2   -1    0    0    0  501 -0.00000000000E+00  0.00000000000E+00  0.10829407725E+02  0.10829407725E+02  0.00000000000E+00 0.  1.
          2   -1    0    0  501    0  0.00000000000E+00 -0.00000000000E+00 -0.17629362124E+04  0.17629362124E+04  0.00000000000E+00 0.  1.
         35    2    1    2    0    0  0.00000000000E+00  0.00000000000E+00 -0.17521068047E+04  0.17737656202E+04  0.27634438686E+03 0.  0.
         25    1    3    3    0    0 -0.15925872142E+01  0.67533507341E+02 -0.80336514365E+03  0.81508212162E+03  0.12000000000E+03 0.  0.
         25    1    3    3    0    0  0.15925872142E+01 -0.67533507341E+02 -0.94874166106E+03  0.95868349854E+03  0.12000000000E+03 0.  0.
<mgrwt>
<rscale>  0 0.27634439E+03</rscale>
<asrwt>0</asrwt>
<pdfrwt beam="1">  1        2 0.27122077E+00 0.27634439E+03</pdfrwt>
<pdfrwt beam="2">  1       -2 0.16660639E-02 0.27634439E+03</pdfrwt>
<totfact> 0.10012607E+04</totfact>
</mgrwt>
</event>
<event>
 5    1  0.1139158E+001  0.2743048E+03  0.7818608E-02  0.1098841E+00
         -1   -1    0    0    0  501 -0.00000000000E+00  0.00000000000E+00  0.13661307484E+03  0.13661307484E+03  0.00000000000E+00 0.  1.
          1   -1    0    0  501    0  0.00000000000E+00 -0.00000000000E+00 -0.13769382119E+03  0.13769382119E+03  0.00000000000E+00 0.  1.
         35    2    1    2    0    0  0.00000000000E+00  0.00000000000E+00 -0.10807463481E+01  0.27430689603E+03  0.27430476700E+03 0.  0.
         25    1    3    3    0    0 -0.16123788473E+02 -0.52212138229E+02 -0.38285763387E+02  0.13730216171E+03  0.12000000000E+03 0.  0.
         25    1    3    3    0    0  0.16123788473E+02  0.52212138229E+02  0.37205017039E+02  0.13700473432E+03  0.12000000000E+03 0.  0.
<mgrwt>
<rscale>  0 0.27430477E+03</rscale>
<asrwt>0</asrwt>
<pdfrwt beam="1">  1        1 0.21183665E-01 0.27430477E+03</pdfrwt>
<pdfrwt beam="2">  1       -1 0.21017396E-01 0.27430477E+03</pdfrwt>
<totfact> 0.43754778E+03</totfact>
</mgrwt>
</event>
<event>
 5    1  0.1139158E+001  0.2742905E+03  0.7818608E-02  0.1098849E+00
         -2   -1    0    0    0  501 -0.00000000000E+00  0.00000000000E+00  0.41976624375E+02  0.41976624375E+02  0.00000000000E+00 0.  1.
          2   -1    0    0  501    0  0.00000000000E+00 -0.00000000000E+00 -0.44807829539E+03  0.44807829539E+03  0.00000000000E+00 0.  1.
         35    2    1    2    0    0  0.00000000000E+00  0.00000000000E+00 -0.40610167102E+03  0.49005491977E+03  0.27429046135E+03 0.  0.
         25    1    3    3    0    0 -0.17243618926E+02  0.17142029930E+02 -0.31344104346E+03  0.33650628421E+03  0.12000000000E+03 0.  0.
         25    1    3    3    0    0  0.17243618926E+02 -0.17142029930E+02 -0.92660627556E+02  0.15354863556E+03  0.12000000000E+03 0.  0.
<mgrwt>
<rscale>  0 0.27429046E+03</rscale>
<asrwt>0</asrwt>
<pdfrwt beam="1">  1        2 0.68935123E-01 0.27429046E+03</pdfrwt>
<pdfrwt beam="2">  1       -2 0.64579422E-02 0.27429046E+03</pdfrwt>
<totfact> 0.92405311E+03</totfact>
</mgrwt>
</event>
<event>
 5    1  0.1139158E+001  0.2746275E+03  0.7818608E-02  0.1098660E+00
          1   -1    0    0  501    0  0.00000000000E+00  0.00000000000E+00  0.15203090764E+03  0.15203090764E+03  0.00000000000E+00 0. -1.
         -1   -1    0    0    0  501 -0.00000000000E+00 -0.00000000000E+00 -0.12402131091E+03  0.12402131091E+03  0.00000000000E+00 0. -1.
         35    2    1    2    0    0  0.00000000000E+00  0.00000000000E+00  0.28009596729E+02  0.27605221854E+03  0.27462754752E+03 0.  0.
         25    1    3    3    0    0 -0.19064065053E+02 -0.41886017774E+02  0.62600141701E+02  0.14295682846E+03  0.12000000000E+03 0.  0.
         25    1    3    3    0    0  0.19064065053E+02  0.41886017774E+02 -0.34590544972E+02  0.13309539009E+03  0.12000000000E+03 0.  0.
<mgrwt>
<rscale>  0 0.27462755E+03</rscale>
<asrwt>0</asrwt>
<pdfrwt beam="1">  1        1 0.23389370E-01 0.27462755E+03</pdfrwt>
<pdfrwt beam="2">  1       -1 0.19080202E-01 0.27462755E+03</pdfrwt>
<totfact> 0.45106308E+03</totfact>
</mgrwt>
</event>
<event>
 5    1  0.1139158E+001  0.2714448E+03  0.7818608E-02  0.1100456E+00
          4   -1    0    0  501    0  0.00000000000E+00  0.00000000000E+00  0.78252143022E+02  0.78252143022E+02  0.00000000000E+00 0.  1.
         -4   -1    0    0    0  501 -0.00000000000E+00 -0.00000000000E+00 -0.23540012352E+03  0.23540012352E+03  0.00000000000E+00 0.  1.
         35    2    1    2    0    0  0.00000000000E+00  0.00000000000E+00 -0.15714798050E+03  0.31365226654E+03  0.27144475779E+03 0.  0.
         25    1    3    3    0    0 -0.11676746779E+02 -0.61972577861E+02 -0.70942727345E+02  0.15300267117E+03  0.12000000000E+03 0.  0.
         25    1    3    3    0    0  0.11676746779E+02  0.61972577861E+02 -0.86205253153E+02  0.16064959537E+03  0.12000000000E+03 0.  0.
<mgrwt>
<rscale>  0 0.27144476E+03</rscale>
<asrwt>0</asrwt>
<pdfrwt beam="1">  1        4 0.12038791E-01 0.27144476E+03</pdfrwt>
<pdfrwt beam="2">  1       -4 0.36215403E-01 0.27144476E+03</pdfrwt>
<totfact> 0.76505232E+02</totfact>
</mgrwt>
</event>
<event>
 5    1  0.1139158E+001  0.2752104E+03  0.7818608E-02  0.1098334E+00
          2   -1    0    0  501    0  0.00000000000E+00  0.00000000000E+00  0.20435415826E+04  0.20435415826E+04  0.00000000000E+00 0. -1.
         -2   -1    0    0    0  501 -0.00000000000E+00 -0.00000000000E+00 -0.92658716275E+01  0.92658716275E+01  0.00000000000E+00 0. -1.
         35    2    1    2    0    0  0.00000000000E+00  0.00000000000E+00  0.20342757110E+04  0.20528074542E+04  0.27521042110E+03 0.  0.
         25    1    3    3    0    0  0.18785716568E+02 -0.48290565501E+02  0.13379906576E+04  0.13443600268E+04  0.12000000000E+03 0.  0.
         25    1    3    3    0    0 -0.18785716568E+02  0.48290565501E+02  0.69628505341E+03  0.70844742745E+03  0.12000000000E+03 0.  0.
<mgrwt>
<rscale>  0 0.27521042E+03</rscale>
<asrwt>0</asrwt>
<pdfrwt beam="1">  1        2 0.31439065E+00 0.27521042E+03</pdfrwt>
<pdfrwt beam="2">  1       -2 0.14255203E-02 0.27521042E+03</pdfrwt>
<totfact> 0.89578226E+03</totfact>
</mgrwt>
</event>
<event>
 5    1  0.1139158E+001  0.2753336E+03  0.7818608E-02  0.1098265E+00
         -2   -1    0    0    0  501 -0.00000000000E+00  0.00000000000E+00  0.96486269823E+02  0.96486269823E+02  0.00000000000E+00 0.  1.
          2   -1    0    0  501    0  0.00000000000E+00 -0.00000000000E+00 -0.19642320710E+03  0.19642320710E+03  0.00000000000E+00 0.  1.
         35    2    1    2    0    0  0.00000000000E+00  0.00000000000E+00 -0.99936937276E+02  0.29290947692E+03  0.27533356177E+03 0.  0.
         25    1    3    3    0    0 -0.23065720565E+02 -0.63275687427E+02 -0.54263843198E+02  0.14792026488E+03  0.12000000000E+03 0.  0.
         25    1    3    3    0    0  0.23065720565E+02  0.63275687427E+02 -0.45673094077E+02  0.14498921204E+03  0.12000000000E+03 0.  0.
<mgrwt>
<rscale>  0 0.27533356E+03</rscale>
<asrwt>0</asrwt>
<pdfrwt beam="1">  1        2 0.30218955E-01 0.27533356E+03</pdfrwt>
<pdfrwt beam="2">  1       -2 0.14844042E-01 0.27533356E+03</pdfrwt>
<totfact> 0.60146745E+03</totfact>
</mgrwt>
</event>
<event>
 5    1  0.1139158E+001  0.2749648E+03  0.7818608E-02  0.1098471E+00
          1   -1    0    0  501    0  0.00000000000E+00  0.00000000000E+00  0.62815016226E+02  0.62815016226E+02  0.00000000000E+00 0. -1.
         -1   -1    0    0    0  501 -0.00000000000E+00 -0.00000000000E+00 -0.30090595445E+03  0.30090595445E+03  0.00000000000E+00 0. -1.
         35    2    1    2    0    0  0.00000000000E+00  0.00000000000E+00 -0.23809093822E+03  0.36372097067E+03  0.27496481529E+03 0.  0.
         25    1    3    3    0    0  0.26779994473E+02  0.34385183336E+02 -0.51571414669E+02  0.13769211941E+03  0.12000000000E+03 0.  0.
         25    1    3    3    0    0 -0.26779994473E+02 -0.34385183336E+02 -0.18651952355E+03  0.22602885126E+03  0.12000000000E+03 0.  0.
<mgrwt>
<rscale>  0 0.27496482E+03</rscale>
<asrwt>0</asrwt>
<pdfrwt beam="1">  1        1 0.96638485E-02 0.27496482E+03</pdfrwt>
<pdfrwt beam="2">  1       -1 0.46293225E-01 0.27496482E+03</pdfrwt>
<totfact> 0.31708045E+03</totfact>
</mgrwt>
</event>
<event>
 5    1  0.1139158E+001  0.2771125E+03  0.7818608E-02  0.1097277E+00
          2   -1    0    0  501    0  0.00000000000E+00  0.00000000000E+00  0.11839504753E+04  0.11839504753E+04  0.00000000000E+00 0.  1.
         -2   -1    0    0    0  501 -0.00000000000E+00 -0.00000000000E+00 -0.16215064231E+02  0.16215064231E+02  0.00000000000E+00 0.  1.
         35    2    1    2    0    0  0.00000000000E+00  0.00000000000E+00  0.11677354110E+04  0.12001655395E+04  0.27711248981E+03 0.  0.
         25    1    3    3    0    0  0.34168541591E+01  0.18902312511E+02  0.29564309419E+03  0.31964638502E+03  0.12000000000E+03 0.  0.
         25    1    3    3    0    0 -0.34168541591E+01 -0.18902312511E+02  0.87209231683E+03  0.88051915446E+03  0.12000000000E+03 0.  0.
<mgrwt>
<rscale>  0 0.27711249E+03</rscale>
<asrwt>0</asrwt>
<pdfrwt beam="1">  1        2 0.18214616E+00 0.27711249E+03</pdfrwt>
<pdfrwt beam="2">  1       -2 0.24946262E-02 0.27711249E+03</pdfrwt>
<totfact> 0.11365591E+04</totfact>
</mgrwt>
</event>
